83
/home/woodbuse/publication/metallohydrolase/github/Computational_Design_of_Metallohydrolases_PrivateGitHub/RFdiffusion2_Tutorial/theozymes/from_quantum_chemistry/Gaussian_TSopt/ZETA_2__DFTqc_theozyme_TSopt_Gaussian.log	Energy: -1458416.5868843
Zn        -0.47126       -0.05795        0.45982
O         -1.15471       -0.29115       -1.47372
C         -0.98397       -2.01105       -1.45634
O         -0.72022       -2.27780       -0.25212
O          0.06109       -2.17620       -2.42781
H         -0.88369        1.03813       -2.42902
C          1.33624       -1.97274       -1.95680
C          1.85944       -0.68478       -1.93316
C          2.09786       -3.06179       -1.50917
C          3.11780       -0.48451       -1.37384
C          3.36683       -2.84747       -0.99365
C          3.90034       -1.54718       -0.88979
H          1.28400        0.15757       -2.29282
H          1.66965       -4.05666       -1.55025
H          3.94539       -3.69041       -0.63317
C         -2.26577       -2.50844       -2.13045
H         -2.27363       -2.16740       -3.16861
H         -2.18403       -3.60191       -2.14363
H         -2.10584       -0.07371       -1.38827
O          3.54313        0.81243       -1.28842
C          4.72149        1.16539       -0.64527
O          4.95561        2.35580       -0.53942
C          5.54984        0.07426       -0.17964
H          6.48736        0.36123        0.28205
C          5.18165       -1.23133       -0.28796
C          6.06606       -2.33324        0.21890
H          6.32605       -3.02534       -0.59030
H          6.98884       -1.93204        0.64326
H          5.55636       -2.92128        0.99067
C         -3.52560       -2.08087       -1.41826
C         -4.35147       -1.09315       -1.97010
C         -3.88910       -2.65369       -0.19074
C         -5.52370       -0.69563       -1.32108
C         -5.05803       -2.26027        0.45784
C         -5.88288       -1.28416       -0.10938
H         -4.08052       -0.63943       -2.92029
H         -3.24794       -3.40986        0.25046
H         -6.15500        0.06750       -1.76721
H         -5.32689       -2.71364        1.40759
H         -6.79739       -0.98361        0.39304
N         -0.04135        2.00077        0.47608
C         -0.70496        2.95018        1.12306
C          1.08103        2.60289       -0.07067
C          1.09774        3.93426        0.25512
N         -0.05085        4.12893        1.00848
H         -1.62915        2.82198        1.66419
H         -0.35104        5.00571        1.41440
H          1.80445        2.04907       -0.64574
N          1.20299       -0.67080        1.42562
C          1.53786       -1.93519        1.64968
C          2.18915        0.11811        2.00177
C          3.13538       -0.68573        2.58177
N          2.69252       -1.98049        2.34836
H          0.98713       -2.79054        1.29673
H          3.16110       -2.82756        2.64180
H          2.15322        1.19458        1.95027
N         -2.14944       -0.05897        1.61130
C         -2.35921       -0.77269        2.70907
C         -3.29476        0.69154        1.39020
C         -4.20793        0.42658        2.37785
N         -3.58909       -0.50211        3.19887
H         -1.66485       -1.46578        3.15809
H         -3.99259       -0.91879        4.02773
H         -3.38454        1.33678        0.52924
O         -2.74905        2.06587       -1.54924
O         -0.83767        1.99311       -2.73726
C         -1.86299        2.63727       -2.17413
C         -1.79266        4.12775       -2.37517
H         -2.71049        4.59902       -2.02304
H         -0.93908        4.52017       -1.81151
H         -1.62564        4.36364       -3.43019
C         -5.58695        0.93510        2.62062
H         -6.31190        0.11456        2.65876
H         -5.65404        1.48648        3.56569
H         -5.87846        1.60714        1.81012
C          2.07969        5.00990       -0.06399
H          2.39254        5.54617        0.83888
H          2.96653        4.55971       -0.51804
H          1.66623        5.74589       -0.76361
C          4.39439       -0.37109        3.31485
H          4.37800       -0.77355        4.33412
H          5.27069       -0.78505        2.80402
H          4.52140        0.71238        3.37631
