      -----------------------------------------------------------      
     |                   =====================                   |     
     |                           x T B                           |     
     |                   =====================                   |     
     |                         S. Grimme                         |     
     |          Mulliken Center for Theoretical Chemistry        |     
     |                    University of Bonn                     |     
      -----------------------------------------------------------      

   * xtb version 6.2.3 (830e466) compiled by 'ehlert@majestix' on 2020-03-16

   xtb is free software: you can redistribute it and/or modify it under
   the terms of the GNU Lesser General Public License as published by
   the Free Software Foundation, either version 3 of the License, or
   (at your option) any later version.
   
   xtb is distributed in the hope that it will be useful,
   but WITHOUT ANY WARRANTY; without even the implied warranty of
   MERCHANTABILITY or FITNESS FOR A PARTICULAR PURPOSE.  See the
   GNU Lesser General Public License for more details.
   
   Cite this work as:
   * S. Grimme, C. Bannwarth, P. Shushkov, J. Chem. Theory Comput., 2017,
     13, 1989-2009. DOI: 10.1021/acs.jctc.7b00118
   * C. Bannwarth, S. Ehlert and S. Grimme., J. Chem. Theory Comput., 2019,
     15, 1652-1671. DOI: 10.1021/acs.jctc.8b01176
   * P. Pracht, E. Caldeweyher, S. Ehlert, S. Grimme, ChemRxiv, 2019, preprint.
     DOI: 10.26434/chemrxiv.8326202.v1
   
   for DFT-D4:
   * E. Caldeweyher, C. Bannwarth and S. Grimme, J. Chem. Phys., 2017,
     147, 034112. DOI: 10.1063/1.4993215
   * E. Caldeweyher, S. Ehlert, A. Hansen, H. Neugebauer, S. Spicher,
     C. Bannwarth and S. Grimme, J. Chem. Phys., 2019, 150, 154122.
     DOI: 10.1063/1.5090222
   
   for sTDA-xTB:
   * S. Grimme and C. Bannwarth, J. Chem. Phys., 2016, 145, 054103.
     DOI: 10.1063/1.4959605
   
   in the mass-spec context:
   * V. Asgeirsson, C. Bauer and S. Grimme, Chem. Sci., 2017, 8, 4879.
     DOI: 10.1039/c7sc00601b
   
   for metadynamics refer to:
   * S. Grimme, J. Chem. Theory Comput., 2019, 155, 2847-2862
     DOI: 10.1021/acs.jctc.9b00143
   
   with help from (in alphabetical order)
   C. Bannwarth, F. Bohle, G. Brandenburg, E. Caldeweyher, M. Checinski,
   S. Dohm, S. Ehlert, S. Ehrlich, F. März, H. Neugebauer, J. Pisarek,
   P. Pracht, P. Shushkov, and S. Spicher.
   
 * started run on 2024/04/05 at 21:26:54.572     

           -------------------------------------------------
          |                Calculation Setup                |
           -------------------------------------------------

          command line arguments for : /home/ikalvet/software/xtb/6.2.3/bin/xtb
            ->   1 is file 'xtbtmp.xyz'
            ->   2 is flag --gbsa h2o
            ->   3 is flag -v
            ->   4 is flag --input None.xcontrol
          coordinate file            : xtbtmp.xyz
          xtbhome directory          : /home/woodbuse
          path for xtb               : /home/woodbuse
          xcontrol input file        : None.xcontrol
          omp threads                :                    20
          number of atoms            :                    86
          number of electrons        :                   248
          charge                     :                     1
          spin                       :                   0.0
          first test random number   :      0.76893944729113
          a pointer address          :            0x3F44D937
          random memory content      :      3FE89B26E65707C7

$$$$$$$$$$$$$$$$$$$$$$$$$$$$$$$$$$$$$$$$$$$$$$$$$$$$$$$$$$$$$$$$$$$$$$$$
 CONSTRAINTS & SCANS: DEBUG SECTION
$$$$$$$$$$$$$$$$$$$$$$$$$$$$$$$$$$$$$$$$$$$$$$$$$$$$$$$$$$$$$$$$$$$$$$$$
$$$$$$$$$$$$$$$$$$$$$$$$$$$$$$$$$$$$$$$$$$$$$$$$$$$$$$$$$$$$$$$$$$$$$$$$

molecular fragmentation (1/2 indicates fragments):
111111111111111111111111111111111111111111111222222222222222222221111111
11111111111111
# atoms in fragment 1/2:    66    20
 fragment masses (1/2) :      580.92      124.14
CMA distance (Bohr)    :   6.209
constraining FC (au)   :  0.0500
########################################################################
[WARNING] Please study the warnings concerning your input carefully
-2- prog_main: XTBPATH is not set, using XTBHOME instead
-1- prog_main: XTBHOME is not set, using HOME instead
########################################################################
           ------------------------------------------------- 
          |                 G F N 2 - x T B                 |
          | Geometry, Frequencies, Noncovalent interactions |
          |            JCTC 2019 parametrisation            |
           ------------------------------------------------- 
             k(s)              :                1.8500
             k(p)              :                2.2300
             k(d)              :                2.2300
             k(f)              :                2.0000
             kEN (H0ij)        :               -2.0000
             D4 a1             :                0.5200
             D4 a2             :                5.0000
             D4 s6             :                1.0000
             D4 s8             :                2.7000
             D4 s9             :                5.0000
             alphaj            :                2.0000

  Z AO/shell   Hii/eV     exponent
  1     Wed Apr 25 08:07:45 CEST 2018   EN: 2.200 GM2: 0.406  GM3: 0.0800  RAES: 1.40
     1s    -10.707211    1.230000
  6     Wed Apr 25 08:07:45 CEST 2018   EN: 2.550 GM2: 0.538  GM3: 0.1500  RAES: 3.00
     2s    -13.970922    2.096432
     2p    -10.063292    1.800000
  7     Wed Apr 25 08:07:45 CEST 2018   EN: 3.040 GM2: 0.461  GM3:-0.0640  RAES: 1.90
     2s    -16.686243    2.339881
     2p    -12.523956    2.014332
  8     Wed Apr 25 08:07:45 CEST 2018   EN: 3.440 GM2: 0.452  GM3:-0.0517  RAES: 1.80
     2s    -20.229985    2.439742
     2p    -15.503117    2.137023
 30     Wed Apr 25 13:34:15 CEST 2018   EN: 1.650 GM2: 0.564  GM3: 0.2313  RAES: 5.00
     4s     -7.177294    1.664847
     4p     -0.991895    1.176434

 Solvent             : h2o
 Using internal parameter file: .param_gbsa2_h2o
 Gsolv ref. state (COSMO-RS): gsolv [1 M gas/solution]
 temperature (mdtemp)       :    298.150000000000     
 dielectric constant        :    80.2000000000000     
 rho                        :    1.00000000000000     
 mass                       :    18.0000000000000     
 surface tension            :    15.5689454083859     
 probe radius               :   0.975313790000000     
 Gshift (Eh)                :   1.857443126794793E-003
 c1                         :    1.55243817000000     
 soset                      :   0.130326360000000     
 HB correction              :  T
           ------------------------------------------------- 
          |        Self-Consistent Charge Iterations        |
           ------------------------------------------------- 

          ...................................................
          :                      SETUP                      :
          :.................................................:
          :  # basis functions                 227          :
          :  # atomic orbitals                 227          :
          :  # shells                          133          :
          :  # electrons                       248          :
          :  max. iterations                   250          :
          :  Hamiltonian                  GFN2-xTB          :
          :  restarted?                      false          :
          :  GBSA solvation                   true          :
          :  PC potential                    false          :
          :  electronic temp.          300.0000000     K    :
          :  accuracy                    1.0000000          :
          :  -> integral cutoff          0.2500000E+02      :
          :  -> integral neglect         0.1000000E-07      :
          :  -> SCF convergence          0.1000000E-05 Eh   :
          :  -> wf. convergence          0.1000000E-03 e    :
          :  Broyden damping             0.4000000          :
          ...................................................

 iter      E             dE          RMSdq      gap      omega  full diag
   1   -141.9586159 -0.141959E+03  0.483E+00    2.62       0.0  T
   2   -142.3179619 -0.359346E+00  0.270E+00    1.97       1.0  T
   3   -142.3563891 -0.384272E-01  0.152E+00    1.99       1.0  T
   4   -142.4198846 -0.634955E-01  0.446E-01    1.80       1.0  T
   5   -142.4301798 -0.102951E-01  0.175E-01    1.89       1.0  T
   6   -142.4308319 -0.652137E-03  0.999E-02    1.90       1.0  T
   7   -142.4310880 -0.256083E-03  0.507E-02    1.93       1.0  T
   8   -142.4311002 -0.122103E-04  0.186E-02    1.94       1.0  T
   9   -142.4311186 -0.184084E-04  0.738E-03    1.94       1.5  T
  10   -142.4311194 -0.766689E-06  0.375E-03    1.94       2.9  T
  11   -142.4311196 -0.210565E-06  0.228E-03    1.94       4.7  T
  12   -142.4311197 -0.130834E-06  0.662E-04    1.94      16.3  T
  13   -142.4311197 -0.347569E-08  0.403E-04    1.94      26.8  T

   *** convergence criteria satisfied after 13 iterations ***

         #    Occupation            Energy/Eh            Energy/eV
      -------------------------------------------------------------
         1        2.0000           -0.7564223             -20.5833
       ...           ...                  ...                  ...
       118        2.0000           -0.4159066             -11.3174
       119        2.0000           -0.4113704             -11.1940
       120        2.0000           -0.4074215             -11.0865
       121        2.0000           -0.4062526             -11.0547
       122        2.0000           -0.4018313             -10.9344
       123        2.0000           -0.3947332             -10.7412
       124        2.0000           -0.3658787              -9.9561 (HOMO)
       125                         -0.2945630              -8.0155 (LUMO)
       126                         -0.2485232              -6.7627
       127                         -0.2456476              -6.6844
       128                         -0.2449546              -6.6656
       129                         -0.2435382              -6.6270
       ...                                ...                  ...
       227                          0.6506152              17.7041
      -------------------------------------------------------------
                  HL-Gap            0.0713157 Eh            1.9406 eV
             Fermi-level           -0.3302209 Eh           -8.9858 eV

 SCC (total)                   0 d,  0 h,  0 min,  0.151 sec
 SCC setup                      ...        0 min,  0.005 sec (  3.120%)
 Dispersion                     ...        0 min,  0.002 sec (  1.165%)
 integral evaluation            ...        0 min,  0.012 sec (  8.089%)
 zeroth order Hamiltonian       ...        0 min,  0.001 sec (  0.445%)
 iterations                     ...        0 min,  0.117 sec ( 77.183%)
 molecular gradient             ...        0 min,  0.014 sec (  9.500%)
 printout                       ...        0 min,  0.001 sec (  0.468%)

         :::::::::::::::::::::::::::::::::::::::::::::::::::::
         ::                     SUMMARY                     ::
         :::::::::::::::::::::::::::::::::::::::::::::::::::::
         :: total energy            -140.710901566746 Eh    ::
         :: total w/o Gsasa/hb      -140.690507588006 Eh    ::
         :: gradient norm              0.116966626833 Eh/a0 ::
         :: HOMO-LUMO gap              1.940600100244 eV    ::
         ::.................................................::
         :: HOMO orbital eigv.        -9.956067540985 eV    ::
         :: LUMO orbital eigv.        -8.015467440741 eV    ::
         ::.................................................::
         :: SCC energy              -142.439115554145 Eh    ::
         :: -> isotropic ES            0.469613354435 Eh    ::
         :: -> anisotropic ES         -0.035613498562 Eh    ::
         :: -> anisotropic XC          0.052141050187 Eh    ::
         :: -> dispersion             -0.104713886909 Eh    ::
         :: -> Gsolv                  -0.154851590419 Eh    ::
         ::    -> Gborn               -0.134457611679 Eh    ::
         ::    -> Gsasa               -0.009853288769 Eh    ::
         ::    -> Ghb                 -0.012398133098 Eh    ::
         ::    -> Gshift               0.001857443127 Eh    ::
         :: repulsion energy           1.724045982255 Eh    ::
         :: add. restraining           0.000000000000 Eh    ::
         ::.................................................::
         :: atomisation energy        25.452095216498 Eh    ::
         :::::::::::::::::::::::::::::::::::::::::::::::::::::

           -------------------------------------------------
          |                Property Printout                |
           -------------------------------------------------

    * Orbital Energies and Occupations

         #    Occupation            Energy/Eh            Energy/eV
      -------------------------------------------------------------
         1        2.0000           -0.7564223             -20.5833
       ...           ...                  ...                  ...
       112        2.0000           -0.4255757             -11.5805
       113        2.0000           -0.4243239             -11.5464
       114        2.0000           -0.4224971             -11.4967
       115        2.0000           -0.4219042             -11.4806
       116        2.0000           -0.4217499             -11.4764
       117        2.0000           -0.4194930             -11.4150
       118        2.0000           -0.4159066             -11.3174
       119        2.0000           -0.4113704             -11.1940
       120        2.0000           -0.4074215             -11.0865
       121        2.0000           -0.4062526             -11.0547
       122        2.0000           -0.4018313             -10.9344
       123        2.0000           -0.3947332             -10.7412
       124        2.0000           -0.3658787              -9.9561 (HOMO)
       125                         -0.2945630              -8.0155 (LUMO)
       126                         -0.2485232              -6.7627
       127                         -0.2456476              -6.6844
       128                         -0.2449546              -6.6656
       129                         -0.2435382              -6.6270
       130                         -0.2394217              -6.5150
       131                         -0.2362517              -6.4287
       132                         -0.2349438              -6.3931
       133                         -0.2325912              -6.3291
       134                         -0.2142313              -5.8295
       135                         -0.2098659              -5.7107
       ...                                ...                  ...
       227                          0.6506152              17.7041
      -------------------------------------------------------------
                  HL-Gap            0.0713157 Eh            1.9406 eV
             Fermi-level           -0.3302209 Eh           -8.9858 eV

     #   Z        covCN         q      C6AA      α(0)
     1  30 Zn     2.963     0.244   122.305    21.603
     2   8 O      2.091    -0.517    23.210     6.507
     3   6 C      3.305     0.406    18.828     6.938
     4   8 O      0.856    -0.615    26.480     6.899
     5   8 O      1.702    -0.313    19.216     5.918
     6   1 H      0.802     0.333     0.630     1.247
     7   6 C      2.862     0.160    24.534     8.119
     8   6 C      2.909    -0.064    29.599     8.921
     9   6 C      2.907    -0.060    29.499     8.906
    10   6 C      2.872     0.143    24.885     8.177
    11   6 C      2.918    -0.036    28.889     8.814
    12   6 C      2.972    -0.019    28.478     8.753
    13   1 H      0.926     0.060     2.195     2.317
    14   1 H      0.926     0.101     1.776     2.084
    15   1 H      0.925     0.096     1.825     2.112
    16   6 C      3.805    -0.097    22.344     6.729
    17   1 H      0.924     0.089     1.892     2.151
    18   1 H      0.924     0.069     2.096     2.264
    19   7 N      2.670    -0.117    23.559     7.209
    20   6 C      3.036     0.069    26.420     8.431
    21   6 C      3.061     0.017    27.567     8.610
    22   6 C      2.990    -0.007    28.191     8.710
    23   7 N      2.809    -0.045    22.106     6.983
    24   1 H      0.926     0.124     1.579     1.965
    25   1 H      0.860     0.245     0.902     1.488
    26   1 H      0.926     0.092     1.860     2.133
    27   1 H      0.926     0.074     2.039     2.233
    28   7 N      2.677    -0.103    23.269     7.164
    29   6 C      3.034     0.071    26.383     8.425
    30   6 C      3.061     0.009    27.764     8.641
    31   6 C      2.989    -0.007    28.187     8.709
    32   7 N      2.811    -0.041    22.040     6.973
    33   1 H      0.926     0.122     1.594     1.974
    34   1 H      0.860     0.245     0.901     1.487
    35   1 H      0.926     0.099     1.794     2.095
    36   1 H      0.926     0.094     1.840     2.121
    37   7 N      2.656    -0.122    23.657     7.224
    38   6 C      3.045     0.076    26.262     8.405
    39   6 C      3.066     0.009    27.759     8.639
    40   6 C      2.995    -0.006    28.161     8.705
    41   7 N      2.804    -0.046    22.135     6.988
    42   1 H      0.926     0.117     1.640     2.003
    43   1 H      0.859     0.245     0.902     1.488
    44   1 H      0.926     0.097     1.813     2.105
    45   1 H      0.926     0.082     1.957     2.187
    46   8 O      1.652    -0.480    22.458     6.397
    47   1 H      0.803     0.319     0.667     1.283
    48   6 C      3.620     0.050    20.188     6.479
    49   1 H      0.923     0.028     2.612     2.527
    50   1 H      0.923     0.010     2.893     2.660
    51   1 H      0.924     0.042     2.421     2.433
    52   1 H      0.802     0.319     0.666     1.282
    53   8 O      1.651    -0.514    23.198     6.502
    54   6 C      3.622    -0.007    21.164     6.632
    55   1 H      0.924    -0.011     3.262     2.824
    56   1 H      0.963     0.140     1.456     1.886
    57   1 H      0.923    -0.030     3.629     2.979
    58   1 H      0.801     0.363     0.559     1.175
    59   8 O      1.656    -0.393    20.719     6.145
    60   8 O      0.856    -0.469    23.118     6.446
    61   6 C      2.687     0.372    20.702     7.446
    62   6 C      3.751    -0.162    23.718     6.945
    63   1 H      0.924     0.102     1.764     2.077
    64   1 H      0.924     0.083     1.951     2.184
    65   1 H      0.924     0.100     1.788     2.091
    66   8 O      1.708    -0.269    18.455     5.800
    67   6 C      2.711     0.344    21.155     7.529
    68   8 O      0.856    -0.503    23.848     6.547
    69   6 C      2.903    -0.096    30.412     9.042
    70   1 H      0.925     0.068     2.105     2.269
    71   6 C      2.955     0.050    26.877     8.503
    72   6 C      3.754    -0.134    23.139     6.859
    73   1 H      0.924     0.090     1.878     2.143
    74   1 H      0.924     0.067     2.121     2.277
    75   1 H      0.924     0.092     1.864     2.135
    76   6 C      2.959     0.015    27.674     8.629
    77   6 C      2.918    -0.050    29.234     8.866
    78   6 C      2.913    -0.025    28.638     8.775
    79   6 C      2.942    -0.044    29.093     8.846
    80   6 C      2.911    -0.026    28.645     8.776
    81   6 C      2.917    -0.038    28.934     8.821
    82   1 H      0.925     0.047     2.357     2.401
    83   1 H      0.925     0.051     2.311     2.377
    84   1 H      0.925     0.043     2.411     2.428
    85   1 H      0.925     0.044     2.401     2.423
    86   1 H      0.925     0.040     2.447     2.446

 Mol. C6AA /au·bohr⁶  :      85222.507606
 Mol. C8AA /au·bohr⁸  :    2106686.607012
 Mol. α(0) /au        :        457.843093


Wiberg/Mayer (AO) data.
largest (>0.10) Wiberg bond orders for each atom
          total WBO             WBO to atom ...
     1  Zn  2.160        N   28 0.524    N   19 0.492    N   37 0.488    O    2 0.429
     2  O   2.191        H    6 0.835    C    3 0.541    Zn   1 0.429    O    4 0.103
     3  C   3.897        O    4 1.429    C   16 0.945    O    5 0.899    O    2 0.541
     4  O   1.829        C    3 1.429    O    2 0.103
     5  O   2.202        C    7 1.044    C    3 0.899
     6  H   0.889        O    2 0.835
     7  C   3.936        C    8 1.402    C    9 1.327    O    5 1.044
     8  C   3.983        C    7 1.402    C   10 1.368    H   13 0.952    C   11 0.104
     9  C   3.969        C   11 1.505    C    7 1.327    H   14 0.960
    10  C   3.907        C    8 1.368    C   12 1.293    O   66 1.040
    11  C   3.977        C    9 1.505    C   12 1.326    H   15 0.960    C    8 0.104
    12  C   3.982        C   11 1.326    C   10 1.293    C   71 1.150
    13  H   0.996        C    8 0.952
    14  H   0.989        C    9 0.960
    15  H   0.990        C   11 0.960
    16  C   3.991        C   76 1.010    H   18 0.967    H   17 0.946    C    3 0.945
    17  H   0.992        C   16 0.946
    18  H   0.995        C   16 0.967
    19  N   3.520        C   20 1.452    C   21 1.256    Zn   1 0.492
    20  C   3.949        N   19 1.452    N   23 1.345    H   24 0.945    C   22 0.103
    21  C   3.969        C   22 1.609    N   19 1.256    H   27 0.960
    22  C   3.950        C   21 1.609    N   23 1.226    H   26 0.964    C   20 0.103
    23  N   3.642        C   20 1.345    C   22 1.226    H   25 0.914
    24  H   0.985        C   20 0.945
    25  H   0.939        N   23 0.914
    26  H   0.991        C   22 0.964
    27  H   0.994        C   21 0.960
    28  N   3.548        C   29 1.451    C   30 1.247    Zn   1 0.524
    29  C   3.951        N   28 1.451    N   32 1.349    H   33 0.944
    30  C   3.962        C   31 1.612    N   28 1.247    H   36 0.955
    31  C   3.947        C   30 1.612    N   32 1.225    H   35 0.963
    32  N   3.645        C   29 1.349    C   31 1.225    H   34 0.914
    33  H   0.985        C   29 0.944
    34  H   0.939        N   32 0.914
    35  H   0.990        C   31 0.963
    36  H   0.991        C   30 0.955
    37  N   3.513        C   38 1.458    C   39 1.245    Zn   1 0.488
    38  C   3.953        N   37 1.458    N   41 1.346    H   42 0.946
    39  C   3.964        C   40 1.614    N   37 1.245    H   45 0.958
    40  C   3.947        C   39 1.614    N   41 1.221    H   44 0.963
    41  N   3.638        C   38 1.346    C   40 1.221    H   43 0.912
    42  H   0.986        C   38 0.946
    43  H   0.939        N   41 0.912
    44  H   0.990        C   40 0.963
    45  H   0.993        C   39 0.958
    46  O   1.924        C   48 1.013    H   47 0.846
    47  H   0.898        O   46 0.846
    48  C   3.961        O   46 1.013    H   51 0.985    H   49 0.979    H   50 0.979
    49  H   0.999        C   48 0.979
    50  H   1.000        C   48 0.979
    51  H   0.998        C   48 0.985
    52  H   0.898        O   53 0.829
    53  O   1.910        C   54 0.996    H   52 0.829
    54  C   3.908        O   53 0.996    H   55 0.984    H   57 0.969    H   56 0.879
    55  H   1.000        C   54 0.984
    56  H   0.980        C   54 0.879
    57  H   0.999        C   54 0.969
    58  H   0.868        O   59 0.782
    59  O   2.205        C   61 1.186    H   58 0.782    O   60 0.169
    60  O   2.003        C   61 1.678    O   59 0.169
    61  C   3.906        O   60 1.678    O   59 1.186    C   62 1.010
    62  C   3.984        C   61 1.010    H   64 0.981    H   63 0.962    H   65 0.945
    63  H   0.989        C   62 0.962
    64  H   0.993        C   62 0.981
    65  H   0.990        C   62 0.945
    66  O   2.362        C   10 1.040    C   67 1.038    O   68 0.131
    67  C   3.905        O   68 1.629    C   69 1.136    O   66 1.038
    68  O   1.933        C   67 1.629    O   66 0.131
    69  C   3.974        C   71 1.628    C   67 1.136    H   70 0.962
    70  H   0.995        C   69 0.962
    71  C   3.975        C   69 1.628    C   12 1.150    C   72 1.041
    72  C   3.987        C   71 1.041    H   74 0.982    H   73 0.957    H   75 0.955
    73  H   0.989        C   72 0.957
    74  H   0.995        C   72 0.982
    75  H   0.989        C   72 0.955
    76  C   3.987        C   78 1.405    C   77 1.391    C   16 1.010    C   81 0.112
    77  C   3.989        C   79 1.420    C   76 1.391    H   82 0.967    C   80 0.112
    78  C   3.989        C   80 1.436    C   76 1.405    H   83 0.968    C   79 0.112
    79  C   3.990        C   77 1.420    C   81 1.404    H   84 0.969    C   78 0.112
    80  C   3.990        C   78 1.436    C   81 1.430    H   85 0.970    C   77 0.112
    81  C   3.989        C   80 1.430    C   79 1.404    H   86 0.970    C   76 0.112
    82  H   0.998        C   77 0.967
    83  H   0.997        C   78 0.968
    84  H   0.998        C   79 0.969
    85  H   0.998        C   80 0.970
    86  H   0.998        C   81 0.970

molecular dipole:
                 x           y           z       tot (Debye)
 q only:      -12.714      -2.817      -1.139
   full:      -12.333      -2.791      -0.834      32.209
molecular quadrupole (traceless):
                xx          xy          yy          xz          yz          zz
 q only:     -179.180     -31.088     112.877     -37.765       5.832      66.302
  q+dip:     -171.961     -32.187     109.819     -30.609       2.986      62.142
   full:     -170.603     -33.938     106.953     -32.324       3.913      63.649


           -------------------------------------------------
          | TOTAL ENERGY             -140.710901566746 Eh   |
          | GRADIENT NORM               0.116966626833 Eh/α |
          | HOMO-LUMO GAP               1.940600100244 eV   |
           -------------------------------------------------

------------------------------------------------------------------------
 unit  open   action     filename
  129 false : read       None.xcontrol
  130 false : read       xtbtmp.xyz
  131 false : read       None.xcontrol
  132 false : written    charges
  133 false : written    wbo
  134 false : written    xtbrestart

------------------------------------------------------------------------
 * finished run on 2024/04/05 at 21:26:54.765     
------------------------------------------------------------------------
 total:
 * wall-time:     0 d,  0 h,  0 min,  0.193 sec
 *  cpu-time:     0 d,  0 h,  0 min,  3.676 sec
 * ratio c/w:    19.033 speedup
 SCF:
 * wall-time:     0 d,  0 h,  0 min,  0.152 sec
 *  cpu-time:     0 d,  0 h,  0 min,  2.995 sec
 * ratio c/w:    19.712 speedup

