      -----------------------------------------------------------      
     |                   =====================                   |     
     |                           x T B                           |     
     |                   =====================                   |     
     |                         S. Grimme                         |     
     |          Mulliken Center for Theoretical Chemistry        |     
     |                    University of Bonn                     |     
      -----------------------------------------------------------      

   * xtb version 6.2.3 (830e466) compiled by 'ehlert@majestix' on 2020-03-16

   xtb is free software: you can redistribute it and/or modify it under
   the terms of the GNU Lesser General Public License as published by
   the Free Software Foundation, either version 3 of the License, or
   (at your option) any later version.
   
   xtb is distributed in the hope that it will be useful,
   but WITHOUT ANY WARRANTY; without even the implied warranty of
   MERCHANTABILITY or FITNESS FOR A PARTICULAR PURPOSE.  See the
   GNU Lesser General Public License for more details.
   
   Cite this work as:
   * S. Grimme, C. Bannwarth, P. Shushkov, J. Chem. Theory Comput., 2017,
     13, 1989-2009. DOI: 10.1021/acs.jctc.7b00118
   * C. Bannwarth, S. Ehlert and S. Grimme., J. Chem. Theory Comput., 2019,
     15, 1652-1671. DOI: 10.1021/acs.jctc.8b01176
   * P. Pracht, E. Caldeweyher, S. Ehlert, S. Grimme, ChemRxiv, 2019, preprint.
     DOI: 10.26434/chemrxiv.8326202.v1
   
   for DFT-D4:
   * E. Caldeweyher, C. Bannwarth and S. Grimme, J. Chem. Phys., 2017,
     147, 034112. DOI: 10.1063/1.4993215
   * E. Caldeweyher, S. Ehlert, A. Hansen, H. Neugebauer, S. Spicher,
     C. Bannwarth and S. Grimme, J. Chem. Phys., 2019, 150, 154122.
     DOI: 10.1063/1.5090222
   
   for sTDA-xTB:
   * S. Grimme and C. Bannwarth, J. Chem. Phys., 2016, 145, 054103.
     DOI: 10.1063/1.4959605
   
   in the mass-spec context:
   * V. Asgeirsson, C. Bauer and S. Grimme, Chem. Sci., 2017, 8, 4879.
     DOI: 10.1039/c7sc00601b
   
   for metadynamics refer to:
   * S. Grimme, J. Chem. Theory Comput., 2019, 155, 2847-2862
     DOI: 10.1021/acs.jctc.9b00143
   
   with help from (in alphabetical order)
   C. Bannwarth, F. Bohle, G. Brandenburg, E. Caldeweyher, M. Checinski,
   S. Dohm, S. Ehlert, S. Ehrlich, F. März, H. Neugebauer, J. Pisarek,
   P. Pracht, P. Shushkov, and S. Spicher.
   
 * started run on 2024/04/05 at 21:18:14.347     

           -------------------------------------------------
          |                Calculation Setup                |
           -------------------------------------------------

          command line arguments for : /home/ikalvet/software/xtb/6.2.3/bin/xtb
            ->   1 is file 'xtbtmp.xyz'
            ->   2 is flag --gbsa h2o
            ->   3 is flag -v
            ->   4 is flag --input None.xcontrol
          coordinate file            : xtbtmp.xyz
          xtbhome directory          : /home/woodbuse
          path for xtb               : /home/woodbuse
          xcontrol input file        : None.xcontrol
          omp threads                :                    20
          number of atoms            :                    74
          number of electrons        :                   220
          charge                     :                     1
          spin                       :                   0.0
          first test random number   :      0.73054064116252
          a pointer address          :            0x3F3B04B6
          random memory content      :      3FE76096C4462411

$$$$$$$$$$$$$$$$$$$$$$$$$$$$$$$$$$$$$$$$$$$$$$$$$$$$$$$$$$$$$$$$$$$$$$$$
 CONSTRAINTS & SCANS: DEBUG SECTION
$$$$$$$$$$$$$$$$$$$$$$$$$$$$$$$$$$$$$$$$$$$$$$$$$$$$$$$$$$$$$$$$$$$$$$$$
$$$$$$$$$$$$$$$$$$$$$$$$$$$$$$$$$$$$$$$$$$$$$$$$$$$$$$$$$$$$$$$$$$$$$$$$

molecular fragmentation (1/2 indicates fragments):
111112111111111111111111111111111111222222222222222221111111111111111111
11
# atoms in fragment 1/2:    56    18
 fragment masses (1/2) :      511.83      129.14
CMA distance (Bohr)    :   5.348
constraining FC (au)   :  0.0500
########################################################################
[WARNING] Please study the warnings concerning your input carefully
-2- prog_main: XTBPATH is not set, using XTBHOME instead
-1- prog_main: XTBHOME is not set, using HOME instead
########################################################################
           ------------------------------------------------- 
          |                 G F N 2 - x T B                 |
          | Geometry, Frequencies, Noncovalent interactions |
          |            JCTC 2019 parametrisation            |
           ------------------------------------------------- 
             k(s)              :                1.8500
             k(p)              :                2.2300
             k(d)              :                2.2300
             k(f)              :                2.0000
             kEN (H0ij)        :               -2.0000
             D4 a1             :                0.5200
             D4 a2             :                5.0000
             D4 s6             :                1.0000
             D4 s8             :                2.7000
             D4 s9             :                5.0000
             alphaj            :                2.0000

  Z AO/shell   Hii/eV     exponent
  1     Wed Apr 25 08:07:45 CEST 2018   EN: 2.200 GM2: 0.406  GM3: 0.0800  RAES: 1.40
     1s    -10.707211    1.230000
  6     Wed Apr 25 08:07:45 CEST 2018   EN: 2.550 GM2: 0.538  GM3: 0.1500  RAES: 3.00
     2s    -13.970922    2.096432
     2p    -10.063292    1.800000
  7     Wed Apr 25 08:07:45 CEST 2018   EN: 3.040 GM2: 0.461  GM3:-0.0640  RAES: 1.90
     2s    -16.686243    2.339881
     2p    -12.523956    2.014332
  8     Wed Apr 25 08:07:45 CEST 2018   EN: 3.440 GM2: 0.452  GM3:-0.0517  RAES: 1.80
     2s    -20.229985    2.439742
     2p    -15.503117    2.137023
 30     Wed Apr 25 13:34:15 CEST 2018   EN: 1.650 GM2: 0.564  GM3: 0.2313  RAES: 5.00
     4s     -7.177294    1.664847
     4p     -0.991895    1.176434

 Solvent             : h2o
 Using internal parameter file: .param_gbsa2_h2o
 Gsolv ref. state (COSMO-RS): gsolv [1 M gas/solution]
 temperature (mdtemp)       :    298.150000000000     
 dielectric constant        :    80.2000000000000     
 rho                        :    1.00000000000000     
 mass                       :    18.0000000000000     
 surface tension            :    15.5689454083859     
 probe radius               :   0.975313790000000     
 Gshift (Eh)                :   1.857443126794793E-003
 c1                         :    1.55243817000000     
 soset                      :   0.130326360000000     
 HB correction              :  T
           ------------------------------------------------- 
          |        Self-Consistent Charge Iterations        |
           ------------------------------------------------- 

          ...................................................
          :                      SETUP                      :
          :.................................................:
          :  # basis functions                 203          :
          :  # atomic orbitals                 203          :
          :  # shells                          117          :
          :  # electrons                       220          :
          :  max. iterations                   250          :
          :  Hamiltonian                  GFN2-xTB          :
          :  restarted?                      false          :
          :  GBSA solvation                   true          :
          :  PC potential                    false          :
          :  electronic temp.          300.0000000     K    :
          :  accuracy                    1.0000000          :
          :  -> integral cutoff          0.2500000E+02      :
          :  -> integral neglect         0.1000000E-07      :
          :  -> SCF convergence          0.1000000E-05 Eh   :
          :  -> wf. convergence          0.1000000E-03 e    :
          :  Broyden damping             0.4000000          :
          ...................................................

 iter      E             dE          RMSdq      gap      omega  full diag
   1   -125.3332903 -0.125333E+03  0.474E+00    2.07       0.0  T
   2   -125.7052029 -0.371913E+00  0.270E+00    2.25       1.0  T
   3   -125.7682481 -0.630452E-01  0.154E+00    2.71       1.0  T
   4   -125.8142235 -0.459754E-01  0.467E-01    2.72       1.0  T
   5   -125.8259914 -0.117678E-01  0.158E-01    2.78       1.0  T
   6   -125.8267197 -0.728361E-03  0.877E-02    2.76       1.0  T
   7   -125.8269089 -0.189154E-03  0.463E-02    2.76       1.0  T
   8   -125.8269163 -0.740504E-05  0.180E-02    2.76       1.0  T
   9   -125.8269286 -0.123683E-04  0.787E-03    2.76       1.5  T
  10   -125.8269289 -0.278792E-06  0.319E-03    2.76       3.6  T
  11   -125.8269291 -0.145867E-06  0.169E-03    2.76       6.9  T
  12   -125.8269291 -0.642534E-07  0.561E-04    2.76      20.7  T
  13   -125.8269291 -0.293542E-08  0.284E-04    2.76      41.0  T

   *** convergence criteria satisfied after 13 iterations ***

         #    Occupation            Energy/Eh            Energy/eV
      -------------------------------------------------------------
         1        2.0000           -0.7518226             -20.4581
       ...           ...                  ...                  ...
       104        2.0000           -0.4144471             -11.2777
       105        2.0000           -0.4122671             -11.2184
       106        2.0000           -0.4036605             -10.9842
       107        2.0000           -0.3982657             -10.8374
       108        2.0000           -0.3961161             -10.7789
       109        2.0000           -0.3926209             -10.6838
       110        2.0000           -0.3907125             -10.6318 (HOMO)
       111                         -0.2894150              -7.8754 (LUMO)
       112                         -0.2459886              -6.6937
       113                         -0.2449039              -6.6642
       114                         -0.2426336              -6.6024
       115                         -0.2374529              -6.4614
       ...                                ...                  ...
       203                          1.0417159              28.3465
      -------------------------------------------------------------
                  HL-Gap            0.1012975 Eh            2.7564 eV
             Fermi-level           -0.3400638 Eh           -9.2536 eV

 SCC (total)                   0 d,  0 h,  0 min,  0.543 sec
 SCC setup                      ...        0 min,  0.005 sec (  0.992%)
 Dispersion                     ...        0 min,  0.010 sec (  1.872%)
 integral evaluation            ...        0 min,  0.052 sec (  9.579%)
 zeroth order Hamiltonian       ...        0 min,  0.001 sec (  0.194%)
 iterations                     ...        0 min,  0.379 sec ( 69.891%)
 molecular gradient             ...        0 min,  0.094 sec ( 17.251%)
 printout                       ...        0 min,  0.001 sec (  0.213%)

         :::::::::::::::::::::::::::::::::::::::::::::::::::::
         ::                     SUMMARY                     ::
         :::::::::::::::::::::::::::::::::::::::::::::::::::::
         :: total energy            -124.239518347522 Eh    ::
         :: total w/o Gsasa/hb      -124.223425877175 Eh    ::
         :: gradient norm              0.131672932593 Eh/a0 ::
         :: HOMO-LUMO gap              2.756444764289 eV    ::
         ::.................................................::
         :: HOMO orbital eigv.       -10.631828985826 eV    ::
         :: LUMO orbital eigv.        -7.875384221536 eV    ::
         ::.................................................::
         :: SCC energy              -125.832376815040 Eh    ::
         :: -> isotropic ES            0.389265172206 Eh    ::
         :: -> anisotropic ES         -0.027236070333 Eh    ::
         :: -> anisotropic XC          0.051976002139 Eh    ::
         :: -> dispersion             -0.100802299462 Eh    ::
         :: -> Gsolv                  -0.127314847143 Eh    ::
         ::    -> Gborn               -0.111222376796 Eh    ::
         ::    -> Gsasa               -0.007305126375 Eh    ::
         ::    -> Ghb                 -0.010644787099 Eh    ::
         ::    -> Gshift               0.001857443127 Eh    ::
         :: repulsion energy           1.588920151525 Eh    ::
         :: add. restraining           0.000000000000 Eh    ::
         ::.................................................::
         :: atomisation energy        22.905918645291 Eh    ::
         :::::::::::::::::::::::::::::::::::::::::::::::::::::

           -------------------------------------------------
          |                Property Printout                |
           -------------------------------------------------

    * Orbital Energies and Occupations

         #    Occupation            Energy/Eh            Energy/eV
      -------------------------------------------------------------
         1        2.0000           -0.7518226             -20.4581
       ...           ...                  ...                  ...
        98        2.0000           -0.4306053             -11.7174
        99        2.0000           -0.4259522             -11.5907
       100        2.0000           -0.4202393             -11.4353
       101        2.0000           -0.4192901             -11.4095
       102        2.0000           -0.4176219             -11.3641
       103        2.0000           -0.4171787             -11.3520
       104        2.0000           -0.4144471             -11.2777
       105        2.0000           -0.4122671             -11.2184
       106        2.0000           -0.4036605             -10.9842
       107        2.0000           -0.3982657             -10.8374
       108        2.0000           -0.3961161             -10.7789
       109        2.0000           -0.3926209             -10.6838
       110        2.0000           -0.3907125             -10.6318 (HOMO)
       111                         -0.2894150              -7.8754 (LUMO)
       112                         -0.2459886              -6.6937
       113                         -0.2449039              -6.6642
       114                         -0.2426336              -6.6024
       115                         -0.2374529              -6.4614
       116                         -0.2352880              -6.4025
       117                         -0.2301246              -6.2620
       118                         -0.2246509              -6.1131
       119                         -0.2231908              -6.0733
       120                         -0.2222349              -6.0473
       121                         -0.2037166              -5.5434
       ...                                ...                  ...
       203                          1.0417159              28.3465
      -------------------------------------------------------------
                  HL-Gap            0.1012975 Eh            2.7564 eV
             Fermi-level           -0.3400638 Eh           -9.2536 eV

     #   Z        covCN         q      C6AA      α(0)
     1  30 Zn     3.423     0.261   122.084    21.584
     2   8 O      1.987    -0.558    24.123     6.633
     3   6 C      3.295     0.407    18.938     6.977
     4   8 O      1.221    -0.494    23.403     6.498
     5   8 O      1.704    -0.318    19.316     5.934
     6   1 H      0.803     0.311     0.689     1.304
     7   6 C      2.863     0.163    24.486     8.111
     8   6 C      2.907    -0.078    29.952     8.974
     9   6 C      2.910    -0.079    29.974     8.977
    10   6 C      2.870     0.143    24.879     8.176
    11   6 C      2.925    -0.101    30.545     9.063
    12   6 C      2.973    -0.023    28.565     8.767
    13   1 H      0.926     0.059     2.210     2.325
    14   1 H      1.022     0.140     1.455     1.884
    15   1 H      1.105     0.144     1.426     1.865
    16   6 C      3.805    -0.087    22.151     6.700
    17   1 H      0.924     0.056     2.249     2.345
    18   1 H      0.924     0.060     2.200     2.319
    19   7 N      2.635    -0.141    24.054     7.284
    20   6 C      3.039     0.071    26.384     8.425
    21   6 C      3.068     0.013    27.656     8.623
    22   6 C      2.988    -0.008    28.199     8.711
    23   7 N      2.808    -0.052    22.245     7.005
    24   1 H      0.926     0.110     1.693     2.035
    25   1 H      0.860     0.237     0.934     1.514
    26   1 H      0.926     0.091     1.872     2.140
    27   1 H      0.926     0.075     2.029     2.227
    28   7 N      2.665    -0.111    23.440     7.191
    29   6 C      3.039     0.070    26.398     8.427
    30   6 C      3.065     0.013    27.661     8.624
    31   6 C      2.989    -0.010    28.252     8.719
    32   7 N      2.809    -0.049    22.184     6.995
    33   1 H      0.926     0.112     1.682     2.028
    34   1 H      0.860     0.242     0.916     1.500
    35   1 H      0.926     0.092     1.856     2.130
    36   1 H      0.926     0.090     1.874     2.141
    37   7 N      2.657    -0.145    24.149     7.298
    38   6 C      3.040     0.075    26.296     8.411
    39   6 C      3.087    -0.000    27.936     8.664
    40   6 C      3.154    -0.013    28.048     8.661
    41   7 N      2.807    -0.053    22.255     7.007
    42   1 H      0.926     0.117     1.636     2.000
    43   1 H      0.860     0.241     0.918     1.501
    44   1 H      0.926     0.123     1.587     1.970
    45   1 H      0.926     0.116     1.646     2.006
    46   1 H      0.798     0.370     0.545     1.160
    47   8 O      1.652    -0.415    21.141     6.207
    48   8 O      0.856    -0.477    23.278     6.469
    49   6 C      2.686     0.365    20.806     7.465
    50   6 C      3.750    -0.164    23.759     6.951
    51   1 H      0.924     0.104     1.749     2.068
    52   1 H      0.925     0.081     1.972     2.196
    53   1 H      0.924     0.093     1.851     2.128
    54   8 O      1.708    -0.272    18.517     5.810
    55   6 C      2.709     0.344    21.154     7.529
    56   8 O      0.857    -0.501    23.806     6.542
    57   6 C      2.904    -0.097    30.431     9.045
    58   1 H      0.925     0.068     2.109     2.271
    59   6 C      2.954     0.047    26.949     8.515
    60   6 C      3.754    -0.143    23.325     6.886
    61   1 H      0.924     0.093     1.852     2.128
    62   1 H      0.924     0.074     2.037     2.232
    63   1 H      0.924     0.090     1.881     2.145
    64   6 C      2.961     0.017    27.624     8.621
    65   6 C      2.915    -0.040    29.001     8.831
    66   6 C      2.915    -0.029    28.732     8.790
    67   6 C      2.910    -0.035    28.864     8.810
    68   6 C      2.910    -0.034    28.835     8.805
    69   6 C      2.911    -0.037    28.915     8.817
    70   1 H      0.925     0.032     2.556     2.500
    71   1 H      0.925     0.034     2.524     2.485
    72   1 H      0.925     0.039     2.458     2.452
    73   1 H      0.925     0.041     2.437     2.441
    74   1 H      0.925     0.041     2.436     2.441

 Mol. C6AA /au·bohr⁶  :      68782.553940
 Mol. C8AA /au·bohr⁸  :    1747680.701079
 Mol. α(0) /au        :        414.414157


Wiberg/Mayer (AO) data.
largest (>0.10) Wiberg bond orders for each atom
          total WBO             WBO to atom ...
     1  Zn  2.143        N   28 0.480    N   19 0.426    N   37 0.425    O    2 0.359    O    4 0.223
     2  O   2.145        H    6 0.865    C    3 0.479    Zn   1 0.359    O    4 0.118
     3  C   3.891        O    4 1.426    C   16 0.950    O    5 0.948    O    2 0.479
     4  O   1.994        C    3 1.426    Zn   1 0.223    O    2 0.118
     5  O   2.235        C    7 1.035    C    3 0.948
     6  H   0.903        O    2 0.865
     7  C   3.921        C    8 1.397    C    9 1.320    O    5 1.035
     8  C   3.979        C    7 1.397    C   10 1.373    H   13 0.965    C   11 0.101
     9  C   3.963        C   11 1.501    C    7 1.320    H   14 0.891
    10  C   3.906        C    8 1.373    C   12 1.288    O   54 1.040
    11  C   3.941        C    9 1.501    C   12 1.317    H   15 0.844    C    8 0.101
    12  C   3.980        C   11 1.317    C   10 1.288    C   59 1.154
    13  H   0.995        C    8 0.965
    14  H   0.980        C    9 0.891
    15  H   0.979        C   11 0.844
    16  C   3.991        C   64 1.011    H   18 0.965    H   17 0.951    C    3 0.950
    17  H   0.996        C   16 0.951
    18  H   0.996        C   16 0.965
    19  N   3.485        C   20 1.471    C   21 1.257    Zn   1 0.426
    20  C   3.952        N   19 1.471    N   23 1.333    H   24 0.948    C   22 0.103
    21  C   3.967        C   22 1.608    N   19 1.257    H   27 0.960
    22  C   3.948        C   21 1.608    N   23 1.224    H   26 0.964    C   20 0.103
    23  N   3.636        C   20 1.333    C   22 1.224    H   25 0.918
    24  H   0.988        C   20 0.948
    25  H   0.943        N   23 0.918
    26  H   0.991        C   22 0.964
    27  H   0.994        C   21 0.960
    28  N   3.534        C   29 1.461    C   30 1.255    Zn   1 0.480
    29  C   3.953        N   28 1.461    N   32 1.340    H   33 0.948    C   31 0.105
    30  C   3.963        C   31 1.609    N   28 1.255    H   36 0.959
    31  C   3.946        C   30 1.609    N   32 1.220    H   35 0.964    C   29 0.105
    32  N   3.637        C   29 1.340    C   31 1.220    H   34 0.916
    33  H   0.987        C   29 0.948
    34  H   0.941        N   32 0.916
    35  H   0.991        C   31 0.964
    36  H   0.992        C   30 0.959
    37  N   3.483        C   38 1.452    C   39 1.266    Zn   1 0.425
    38  C   3.952        N   37 1.452    N   41 1.321    H   42 0.946    C   40 0.104
    39  C   3.960        C   40 1.521    N   37 1.266    H   45 0.948
    40  C   3.944        C   39 1.521    N   41 1.209    H   44 0.945    C   38 0.104
    41  N   3.628        C   38 1.321    C   40 1.209    H   43 0.913
    42  H   0.986        C   38 0.946
    43  H   0.941        N   41 0.913
    44  H   0.984        C   40 0.945
    45  H   0.986        C   39 0.948
    46  H   0.863        O   47 0.745
    47  O   2.188        C   49 1.182    H   46 0.745    O   48 0.174
    48  O   1.989        C   49 1.694    O   47 0.174
    49  C   3.909        O   48 1.694    O   47 1.182    C   50 1.005
    50  C   3.985        C   49 1.005    H   52 0.983    H   53 0.958    H   51 0.953
    51  H   0.989        C   50 0.953
    52  H   0.993        C   50 0.983
    53  H   0.991        C   50 0.958
    54  O   2.356        C   10 1.040    C   55 1.033    O   56 0.132
    55  C   3.902        O   56 1.636    C   57 1.131    O   54 1.033
    56  O   1.940        C   55 1.636    O   54 0.132
    57  C   3.972        C   59 1.630    C   55 1.131    H   58 0.962
    58  H   0.995        C   57 0.962
    59  C   3.974        C   57 1.630    C   12 1.154    C   60 1.036
    60  C   3.985        C   59 1.036    H   62 0.981    H   63 0.953    H   61 0.949
    61  H   0.989        C   60 0.949
    62  H   0.994        C   60 0.981
    63  H   0.989        C   60 0.953
    64  C   3.986        C   65 1.415    C   66 1.405    C   16 1.011    C   69 0.109
    65  C   3.990        C   67 1.440    C   64 1.415    H   70 0.969    C   68 0.110
    66  C   3.991        C   68 1.447    C   64 1.405    H   71 0.969    C   67 0.112
    67  C   3.991        C   69 1.440    C   65 1.440    H   72 0.971    C   66 0.112
    68  C   3.990        C   66 1.447    C   69 1.435    H   73 0.970    C   65 0.110
    69  C   3.990        C   67 1.440    C   68 1.435    H   74 0.971    C   64 0.109
    70  H   0.999        C   65 0.969
    71  H   0.999        C   66 0.969
    72  H   0.998        C   67 0.971
    73  H   0.998        C   68 0.970
    74  H   0.998        C   69 0.971

molecular dipole:
                 x           y           z       tot (Debye)
 q only:       -8.292       1.867      -6.616
   full:       -7.671       1.931      -6.415      25.886
molecular quadrupole (traceless):
                xx          xy          yy          xz          yz          zz
 q only:       -4.199      49.110     -11.239     -43.565      69.521      15.438
  q+dip:       -2.786      45.888     -12.944     -43.584      64.273      15.730
   full:       -0.027      46.514     -15.593     -42.859      65.587      15.621


           -------------------------------------------------
          | TOTAL ENERGY             -124.239518347522 Eh   |
          | GRADIENT NORM               0.131672932593 Eh/α |
          | HOMO-LUMO GAP               2.756444764289 eV   |
           -------------------------------------------------

------------------------------------------------------------------------
 unit  open   action     filename
  129 false : read       None.xcontrol
  130 false : read       xtbtmp.xyz
  131 false : read       None.xcontrol
  132 false : written    charges
  133 false : written    wbo
  134 false : written    xtbrestart

------------------------------------------------------------------------
 * finished run on 2024/04/05 at 21:18:15.073     
------------------------------------------------------------------------
 total:
 * wall-time:     0 d,  0 h,  0 min,  0.726 sec
 *  cpu-time:     0 d,  0 h,  0 min,  4.164 sec
 * ratio c/w:     5.739 speedup
 SCF:
 * wall-time:     0 d,  0 h,  0 min,  0.544 sec
 *  cpu-time:     0 d,  0 h,  0 min,  3.444 sec
 * ratio c/w:     6.327 speedup

