      -----------------------------------------------------------      
     |                   =====================                   |     
     |                           x T B                           |     
     |                   =====================                   |     
     |                         S. Grimme                         |     
     |          Mulliken Center for Theoretical Chemistry        |     
     |                    University of Bonn                     |     
      -----------------------------------------------------------      

   * xtb version 6.2.3 (830e466) compiled by 'ehlert@majestix' on 2020-03-16

   xtb is free software: you can redistribute it and/or modify it under
   the terms of the GNU Lesser General Public License as published by
   the Free Software Foundation, either version 3 of the License, or
   (at your option) any later version.
   
   xtb is distributed in the hope that it will be useful,
   but WITHOUT ANY WARRANTY; without even the implied warranty of
   MERCHANTABILITY or FITNESS FOR A PARTICULAR PURPOSE.  See the
   GNU Lesser General Public License for more details.
   
   Cite this work as:
   * S. Grimme, C. Bannwarth, P. Shushkov, J. Chem. Theory Comput., 2017,
     13, 1989-2009. DOI: 10.1021/acs.jctc.7b00118
   * C. Bannwarth, S. Ehlert and S. Grimme., J. Chem. Theory Comput., 2019,
     15, 1652-1671. DOI: 10.1021/acs.jctc.8b01176
   * P. Pracht, E. Caldeweyher, S. Ehlert, S. Grimme, ChemRxiv, 2019, preprint.
     DOI: 10.26434/chemrxiv.8326202.v1
   
   for DFT-D4:
   * E. Caldeweyher, C. Bannwarth and S. Grimme, J. Chem. Phys., 2017,
     147, 034112. DOI: 10.1063/1.4993215
   * E. Caldeweyher, S. Ehlert, A. Hansen, H. Neugebauer, S. Spicher,
     C. Bannwarth and S. Grimme, J. Chem. Phys., 2019, 150, 154122.
     DOI: 10.1063/1.5090222
   
   for sTDA-xTB:
   * S. Grimme and C. Bannwarth, J. Chem. Phys., 2016, 145, 054103.
     DOI: 10.1063/1.4959605
   
   in the mass-spec context:
   * V. Asgeirsson, C. Bauer and S. Grimme, Chem. Sci., 2017, 8, 4879.
     DOI: 10.1039/c7sc00601b
   
   for metadynamics refer to:
   * S. Grimme, J. Chem. Theory Comput., 2019, 155, 2847-2862
     DOI: 10.1021/acs.jctc.9b00143
   
   with help from (in alphabetical order)
   C. Bannwarth, F. Bohle, G. Brandenburg, E. Caldeweyher, M. Checinski,
   S. Dohm, S. Ehlert, S. Ehrlich, F. März, H. Neugebauer, J. Pisarek,
   P. Pracht, P. Shushkov, and S. Spicher.
   
 * started run on 2024/04/05 at 21:22:57.644     

           -------------------------------------------------
          |                Calculation Setup                |
           -------------------------------------------------

          command line arguments for : /home/ikalvet/software/xtb/6.2.3/bin/xtb
            ->   1 is file 'xtbtmp.xyz'
            ->   2 is flag --gbsa h2o
            ->   3 is flag -v
            ->   4 is flag --input None.xcontrol
          coordinate file            : xtbtmp.xyz
          xtbhome directory          : /home/woodbuse
          path for xtb               : /home/woodbuse
          xcontrol input file        : None.xcontrol
          omp threads                :                    20
          number of atoms            :                    74
          number of electrons        :                   220
          charge                     :                     1
          spin                       :                   0.0
          first test random number   :      0.07219969720439
          a pointer address          :            0x3D93DD6F
          random memory content      :      3FB27BADEA462173

$$$$$$$$$$$$$$$$$$$$$$$$$$$$$$$$$$$$$$$$$$$$$$$$$$$$$$$$$$$$$$$$$$$$$$$$
 CONSTRAINTS & SCANS: DEBUG SECTION
$$$$$$$$$$$$$$$$$$$$$$$$$$$$$$$$$$$$$$$$$$$$$$$$$$$$$$$$$$$$$$$$$$$$$$$$
$$$$$$$$$$$$$$$$$$$$$$$$$$$$$$$$$$$$$$$$$$$$$$$$$$$$$$$$$$$$$$$$$$$$$$$$

molecular fragmentation (1/2 indicates fragments):
111111111111111111111111111111111111222222222222222221111111111111111111
11
# atoms in fragment 1/2:    57    17
 fragment masses (1/2) :      512.84      128.13
CMA distance (Bohr)    :   8.363
constraining FC (au)   :  0.0500
########################################################################
[WARNING] Please study the warnings concerning your input carefully
-2- prog_main: XTBPATH is not set, using XTBHOME instead
-1- prog_main: XTBHOME is not set, using HOME instead
########################################################################
           ------------------------------------------------- 
          |                 G F N 2 - x T B                 |
          | Geometry, Frequencies, Noncovalent interactions |
          |            JCTC 2019 parametrisation            |
           ------------------------------------------------- 
             k(s)              :                1.8500
             k(p)              :                2.2300
             k(d)              :                2.2300
             k(f)              :                2.0000
             kEN (H0ij)        :               -2.0000
             D4 a1             :                0.5200
             D4 a2             :                5.0000
             D4 s6             :                1.0000
             D4 s8             :                2.7000
             D4 s9             :                5.0000
             alphaj            :                2.0000

  Z AO/shell   Hii/eV     exponent
  1     Wed Apr 25 08:07:45 CEST 2018   EN: 2.200 GM2: 0.406  GM3: 0.0800  RAES: 1.40
     1s    -10.707211    1.230000
  6     Wed Apr 25 08:07:45 CEST 2018   EN: 2.550 GM2: 0.538  GM3: 0.1500  RAES: 3.00
     2s    -13.970922    2.096432
     2p    -10.063292    1.800000
  7     Wed Apr 25 08:07:45 CEST 2018   EN: 3.040 GM2: 0.461  GM3:-0.0640  RAES: 1.90
     2s    -16.686243    2.339881
     2p    -12.523956    2.014332
  8     Wed Apr 25 08:07:45 CEST 2018   EN: 3.440 GM2: 0.452  GM3:-0.0517  RAES: 1.80
     2s    -20.229985    2.439742
     2p    -15.503117    2.137023
 30     Wed Apr 25 13:34:15 CEST 2018   EN: 1.650 GM2: 0.564  GM3: 0.2313  RAES: 5.00
     4s     -7.177294    1.664847
     4p     -0.991895    1.176434

 Solvent             : h2o
 Using internal parameter file: .param_gbsa2_h2o
 Gsolv ref. state (COSMO-RS): gsolv [1 M gas/solution]
 temperature (mdtemp)       :    298.150000000000     
 dielectric constant        :    80.2000000000000     
 rho                        :    1.00000000000000     
 mass                       :    18.0000000000000     
 surface tension            :    15.5689454083859     
 probe radius               :   0.975313790000000     
 Gshift (Eh)                :   1.857443126794793E-003
 c1                         :    1.55243817000000     
 soset                      :   0.130326360000000     
 HB correction              :  T
           ------------------------------------------------- 
          |        Self-Consistent Charge Iterations        |
           ------------------------------------------------- 

          ...................................................
          :                      SETUP                      :
          :.................................................:
          :  # basis functions                 203          :
          :  # atomic orbitals                 203          :
          :  # shells                          117          :
          :  # electrons                       220          :
          :  max. iterations                   250          :
          :  Hamiltonian                  GFN2-xTB          :
          :  restarted?                      false          :
          :  GBSA solvation                   true          :
          :  PC potential                    false          :
          :  electronic temp.          300.0000000     K    :
          :  accuracy                    1.0000000          :
          :  -> integral cutoff          0.2500000E+02      :
          :  -> integral neglect         0.1000000E-07      :
          :  -> SCF convergence          0.1000000E-05 Eh   :
          :  -> wf. convergence          0.1000000E-03 e    :
          :  Broyden damping             0.4000000          :
          ...................................................

 iter      E             dE          RMSdq      gap      omega  full diag
   1   -125.3306687 -0.125331E+03  0.487E+00    3.08       0.0  T
   2   -125.7196560 -0.388987E+00  0.274E+00    2.39       1.0  T
   3   -125.7863203 -0.666643E-01  0.157E+00    2.62       1.0  T
   4   -125.8314904 -0.451701E-01  0.447E-01    2.45       1.0  T
   5   -125.8413174 -0.982693E-02  0.144E-01    2.52       1.0  T
   6   -125.8418548 -0.537430E-03  0.766E-02    2.51       1.0  T
   7   -125.8420136 -0.158763E-03  0.398E-02    2.51       1.0  T
   8   -125.8420175 -0.395472E-05  0.163E-02    2.50       1.0  T
   9   -125.8420293 -0.117619E-04  0.639E-03    2.50       1.8  T
  10   -125.8420296 -0.306519E-06  0.290E-03    2.50       4.0  T
  11   -125.8420297 -0.130796E-06  0.159E-03    2.50       7.3  T
  12   -125.8420298 -0.566450E-07  0.473E-04    2.50      24.6  T
  13   -125.8420298 -0.233584E-08  0.261E-04    2.50      44.5  T

   *** convergence criteria satisfied after 13 iterations ***

         #    Occupation            Energy/Eh            Energy/eV
      -------------------------------------------------------------
         1        2.0000           -0.7470452             -20.3281
       ...           ...                  ...                  ...
       104        2.0000           -0.4139931             -11.2653
       105        2.0000           -0.4115341             -11.1984
       106        2.0000           -0.4071248             -11.0784
       107        2.0000           -0.3951239             -10.7519
       108        2.0000           -0.3926596             -10.6848
       109        2.0000           -0.3881915             -10.5632
       110        2.0000           -0.3782312             -10.2922 (HOMO)
       111                         -0.2863056              -7.7908 (LUMO)
       112                         -0.2480574              -6.7500
       113                         -0.2394921              -6.5169
       114                         -0.2381630              -6.4807
       115                         -0.2376905              -6.4679
       ...                                ...                  ...
       203                          0.8630923              23.4859
      -------------------------------------------------------------
                  HL-Gap            0.0919256 Eh            2.5014 eV
             Fermi-level           -0.3322684 Eh           -9.0415 eV

 SCC (total)                   0 d,  0 h,  0 min,  0.595 sec
 SCC setup                      ...        0 min,  0.008 sec (  1.403%)
 Dispersion                     ...        0 min,  0.002 sec (  0.260%)
 integral evaluation            ...        0 min,  0.046 sec (  7.680%)
 zeroth order Hamiltonian       ...        0 min,  0.001 sec (  0.153%)
 iterations                     ...        0 min,  0.448 sec ( 75.296%)
 molecular gradient             ...        0 min,  0.090 sec ( 15.074%)
 printout                       ...        0 min,  0.001 sec (  0.126%)

         :::::::::::::::::::::::::::::::::::::::::::::::::::::
         ::                     SUMMARY                     ::
         :::::::::::::::::::::::::::::::::::::::::::::::::::::
         :: total energy            -124.248350144428 Eh    ::
         :: total w/o Gsasa/hb      -124.229382428763 Eh    ::
         :: gradient norm              0.140744939050 Eh/a0 ::
         :: HOMO-LUMO gap              2.501423346217 eV    ::
         ::.................................................::
         :: HOMO orbital eigv.       -10.292194859223 eV    ::
         :: LUMO orbital eigv.        -7.790771513006 eV    ::
         ::.................................................::
         :: SCC energy              -125.849557290856 Eh    ::
         :: -> isotropic ES            0.363367637892 Eh    ::
         :: -> anisotropic ES         -0.015341637666 Eh    ::
         :: -> anisotropic XC          0.049728623797 Eh    ::
         :: -> dispersion             -0.090436006600 Eh    ::
         :: -> Gsolv                  -0.114836583865 Eh    ::
         ::    -> Gborn               -0.095868868199 Eh    ::
         ::    -> Gsasa               -0.009384967177 Eh    ::
         ::    -> Ghb                 -0.011440191615 Eh    ::
         ::    -> Gshift               0.001857443127 Eh    ::
         :: repulsion energy           1.598448327112 Eh    ::
         :: add. restraining           0.000000000000 Eh    ::
         ::.................................................::
         :: atomisation energy        22.914750442197 Eh    ::
         :::::::::::::::::::::::::::::::::::::::::::::::::::::

           -------------------------------------------------
          |                Property Printout                |
           -------------------------------------------------

    * Orbital Energies and Occupations

         #    Occupation            Energy/Eh            Energy/eV
      -------------------------------------------------------------
         1        2.0000           -0.7470452             -20.3281
       ...           ...                  ...                  ...
        98        2.0000           -0.4290213             -11.6743
        99        2.0000           -0.4210954             -11.4586
       100        2.0000           -0.4188079             -11.3963
       101        2.0000           -0.4178239             -11.3696
       102        2.0000           -0.4166840             -11.3385
       103        2.0000           -0.4157628             -11.3135
       104        2.0000           -0.4139931             -11.2653
       105        2.0000           -0.4115341             -11.1984
       106        2.0000           -0.4071248             -11.0784
       107        2.0000           -0.3951239             -10.7519
       108        2.0000           -0.3926596             -10.6848
       109        2.0000           -0.3881915             -10.5632
       110        2.0000           -0.3782312             -10.2922 (HOMO)
       111                         -0.2863056              -7.7908 (LUMO)
       112                         -0.2480574              -6.7500
       113                         -0.2394921              -6.5169
       114                         -0.2381630              -6.4807
       115                         -0.2376905              -6.4679
       116                         -0.2353962              -6.4055
       117                         -0.2243396              -6.1046
       118                         -0.2210785              -6.0159
       119                         -0.2190411              -5.9604
       120                         -0.2051977              -5.5837
       121                         -0.2015107              -5.4834
       ...                                ...                  ...
       203                          0.8630923              23.4859
      -------------------------------------------------------------
                  HL-Gap            0.0919256 Eh            2.5014 eV
             Fermi-level           -0.3322684 Eh           -9.0415 eV

     #   Z        covCN         q      C6AA      α(0)
     1  30 Zn     3.184     0.254   122.179    21.592
     2   8 O      2.043    -0.524    23.354     6.527
     3   6 C      3.318     0.404    18.677     6.884
     4   8 O      1.070    -0.502    23.703     6.533
     5   8 O      1.701    -0.332    19.559     5.971
     6   1 H      0.803     0.332     0.634     1.251
     7   6 C      2.865     0.162    24.506     8.114
     8   6 C      2.908    -0.138    31.538     9.209
     9   6 C      2.908    -0.062    29.552     8.914
    10   6 C      2.868     0.141    24.918     8.183
    11   6 C      2.918    -0.037    28.917     8.818
    12   6 C      2.973    -0.025    28.618     8.775
    13   1 H      0.951     0.151     1.383     1.838
    14   1 H      0.925     0.071     2.069     2.250
    15   1 H      0.925     0.078     2.002     2.213
    16   6 C      3.805    -0.093    22.275     6.719
    17   1 H      0.924     0.076     2.021     2.223
    18   1 H      0.924     0.051     2.308     2.376
    19   7 N      2.629    -0.145    24.143     7.298
    20   6 C      3.040     0.076    26.266     8.406
    21   6 C      3.065     0.010    27.724     8.634
    22   6 C      2.987    -0.012    28.308     8.728
    23   7 N      2.808    -0.055    22.310     7.015
    24   1 H      0.926     0.106     1.735     2.060
    25   1 H      0.860     0.237     0.935     1.515
    26   1 H      0.926     0.092     1.863     2.135
    27   1 H      0.926     0.076     2.019     2.222
    28   7 N      2.669    -0.111    23.425     7.188
    29   6 C      3.035     0.070    26.403     8.428
    30   6 C      3.063     0.014    27.648     8.623
    31   6 C      2.990    -0.011    28.271     8.722
    32   7 N      2.809    -0.050    22.200     6.998
    33   1 H      0.926     0.112     1.681     2.028
    34   1 H      0.860     0.241     0.918     1.501
    35   1 H      0.926     0.091     1.873     2.140
    36   1 H      0.926     0.088     1.900     2.155
    37   7 N      2.665    -0.117    23.563     7.209
    38   6 C      3.037     0.072    26.346     8.419
    39   6 C      3.063     0.012    27.684     8.628
    40   6 C      2.989    -0.010    28.257     8.720
    41   7 N      2.809    -0.049    22.191     6.996
    42   1 H      0.926     0.109     1.704     2.041
    43   1 H      0.860     0.241     0.920     1.503
    44   1 H      0.926     0.094     1.837     2.120
    45   1 H      0.926     0.083     1.945     2.181
    46   1 H      0.799     0.369     0.548     1.163
    47   8 O      1.654    -0.396    20.781     6.154
    48   8 O      0.856    -0.475    23.245     6.464
    49   6 C      2.686     0.367    20.775     7.459
    50   6 C      3.751    -0.163    23.727     6.947
    51   1 H      0.924     0.105     1.742     2.064
    52   1 H      0.925     0.084     1.940     2.178
    53   1 H      0.924     0.098     1.808     2.102
    54   8 O      1.707    -0.265    18.387     5.789
    55   6 C      2.706     0.343    21.175     7.532
    56   8 O      0.857    -0.491    23.578     6.510
    57   6 C      2.903    -0.098    30.460     9.049
    58   1 H      0.925     0.061     2.186     2.312
    59   6 C      2.954     0.048    26.930     8.512
    60   6 C      3.755    -0.130    23.046     6.845
    61   1 H      0.924     0.083     1.945     2.181
    62   1 H      0.924     0.063     2.167     2.302
    63   1 H      0.924     0.080     1.982     2.201
    64   6 C      2.960     0.015    27.686     8.631
    65   6 C      2.915    -0.043    29.075     8.842
    66   6 C      2.918    -0.073    29.827     8.956
    67   6 C      2.910    -0.035    28.860     8.809
    68   6 C      2.910    -0.031    28.772     8.796
    69   6 C      2.911    -0.036    28.901     8.815
    70   1 H      0.925     0.034     2.527     2.486
    71   1 H      0.948     0.130     1.530     1.933
    72   1 H      0.925     0.032     2.564     2.504
    73   1 H      0.925     0.030     2.584     2.514
    74   1 H      0.925     0.026     2.645     2.543

 Mol. C6AA /au·bohr⁶  :      68837.792327
 Mol. C8AA /au·bohr⁸  :    1748424.758789
 Mol. α(0) /au        :        414.595385


Wiberg/Mayer (AO) data.
largest (>0.10) Wiberg bond orders for each atom
          total WBO             WBO to atom ...
     1  Zn  2.159        N   28 0.484    N   37 0.474    N   19 0.421    O    2 0.397    O    4 0.193
     2  O   2.195        H    6 0.839    C    3 0.547    Zn   1 0.397    O    4 0.128
     3  C   3.893        O    4 1.431    C   16 0.957    O    5 0.880    O    2 0.547
     4  O   1.982        C    3 1.431    Zn   1 0.193    O    2 0.128
     5  O   2.204        C    7 1.055    C    3 0.880
     6  H   0.890        O    2 0.839
     7  C   3.926        C    8 1.392    C    9 1.312    O    5 1.055
     8  C   3.949        C    7 1.392    C   10 1.372    H   13 0.800    C   66 0.105    C   11 0.102
     9  C   3.974        C   11 1.513    C    7 1.312    H   14 0.965
    10  C   3.911        C    8 1.372    C   12 1.290    O   54 1.044
    11  C   3.980        C    9 1.513    C   12 1.321    H   15 0.963    C    8 0.102
    12  C   3.984        C   11 1.321    C   10 1.290    C   59 1.154
    13  H   0.977        C    8 0.800    H   71 0.125
    14  H   0.994        C    9 0.965
    15  H   0.993        C   11 0.963
    16  C   3.990        C   64 1.005    H   18 0.957    C    3 0.957    H   17 0.956
    17  H   0.994        C   16 0.956
    18  H   0.997        C   16 0.957
    19  N   3.474        C   20 1.475    C   21 1.257    Zn   1 0.421
    20  C   3.955        N   19 1.475    N   23 1.334    H   24 0.950    C   22 0.103
    21  C   3.966        C   22 1.609    N   19 1.257    H   27 0.962
    22  C   3.945        C   21 1.609    N   23 1.219    H   26 0.964    C   20 0.103
    23  N   3.633        C   20 1.334    C   22 1.219    H   25 0.918
    24  H   0.989        C   20 0.950
    25  H   0.943        N   23 0.918
    26  H   0.991        C   22 0.964
    27  H   0.994        C   21 0.962
    28  N   3.531        C   29 1.461    C   30 1.259    Zn   1 0.484
    29  C   3.952        N   28 1.461    N   32 1.339    H   33 0.947    C   31 0.106
    30  C   3.965        C   31 1.608    N   28 1.259    H   36 0.959
    31  C   3.947        C   30 1.608    N   32 1.221    H   35 0.964    C   29 0.106
    32  N   3.637        C   29 1.339    C   31 1.221    H   34 0.916
    33  H   0.987        C   29 0.947
    34  H   0.941        N   32 0.916
    35  H   0.991        C   31 0.964
    36  H   0.992        C   30 0.959
    37  N   3.521        C   38 1.467    C   39 1.257    Zn   1 0.474
    38  C   3.955        N   37 1.467    N   41 1.338    H   42 0.948    C   40 0.104
    39  C   3.965        C   40 1.607    N   37 1.257    H   45 0.958
    40  C   3.946        C   39 1.607    N   41 1.222    H   44 0.964    C   38 0.104
    41  N   3.637        C   38 1.338    C   40 1.222    H   43 0.916
    42  H   0.988        C   38 0.948
    43  H   0.941        N   41 0.916
    44  H   0.990        C   40 0.964
    45  H   0.993        C   39 0.958
    46  H   0.864        O   47 0.769
    47  O   2.204        C   49 1.190    H   46 0.769    O   48 0.173
    48  O   2.002        C   49 1.681    O   47 0.173
    49  C   3.907        O   48 1.681    O   47 1.190    C   50 1.008
    50  C   3.984        C   49 1.008    H   52 0.981    H   53 0.961    H   51 0.947
    51  H   0.989        C   50 0.947
    52  H   0.993        C   50 0.981
    53  H   0.990        C   50 0.961
    54  O   2.361        C   10 1.044    C   55 1.030    O   56 0.134
    55  C   3.910        O   56 1.644    C   57 1.133    O   54 1.030
    56  O   1.950        C   55 1.644    O   54 0.134
    57  C   3.973        C   59 1.629    C   55 1.133    H   58 0.963
    58  H   0.996        C   57 0.963
    59  C   3.975        C   57 1.629    C   12 1.154    C   60 1.039
    60  C   3.990        C   59 1.039    H   62 0.982    H   61 0.959    H   63 0.958
    61  H   0.991        C   60 0.959
    62  H   0.996        C   60 0.982
    63  H   0.991        C   60 0.958
    64  C   3.986        C   66 1.410    C   65 1.409    C   16 1.005    C   69 0.109
    65  C   3.990        C   67 1.445    C   64 1.409    H   70 0.970    C   68 0.111
    66  C   3.981        C   68 1.435    C   64 1.410    H   71 0.821    C   67 0.109    C    8 0.105
    67  C   3.990        C   65 1.445    C   69 1.436    H   72 0.971    C   66 0.109
    68  C   3.990        C   69 1.439    C   66 1.435    H   73 0.971    C   65 0.111
    69  C   3.991        C   68 1.439    C   67 1.436    H   74 0.972    C   64 0.109
    70  H   0.999        C   65 0.970
    71  H   0.983        C   66 0.821    H   13 0.125
    72  H   0.998        C   67 0.971
    73  H   0.999        C   68 0.971
    74  H   0.998        C   69 0.972

molecular dipole:
                 x           y           z       tot (Debye)
 q only:       -5.182       0.865      -6.644
   full:       -4.989       1.130      -6.667      21.359
molecular quadrupole (traceless):
                xx          xy          yy          xz          yz          zz
 q only:       14.874       9.253      39.347     -10.950      47.316     -54.221
  q+dip:       15.957       8.048      37.239      -9.970      48.181     -53.196
   full:       19.705       8.679      34.966      -7.444      49.166     -54.672


           -------------------------------------------------
          | TOTAL ENERGY             -124.248350144428 Eh   |
          | GRADIENT NORM               0.140744939050 Eh/α |
          | HOMO-LUMO GAP               2.501423346217 eV   |
           -------------------------------------------------

------------------------------------------------------------------------
 unit  open   action     filename
  129 false : read       None.xcontrol
  130 false : read       xtbtmp.xyz
  131 false : read       None.xcontrol
  132 false : written    charges
  133 false : written    wbo
  134 false : written    xtbrestart

------------------------------------------------------------------------
 * finished run on 2024/04/05 at 21:22:58.353     
------------------------------------------------------------------------
 total:
 * wall-time:     0 d,  0 h,  0 min,  0.708 sec
 *  cpu-time:     0 d,  0 h,  0 min,  4.892 sec
 * ratio c/w:     6.906 speedup
 SCF:
 * wall-time:     0 d,  0 h,  0 min,  0.596 sec
 *  cpu-time:     0 d,  0 h,  0 min,  4.185 sec
 * ratio c/w:     7.025 speedup

