 Entering Gaussian System, Link 0=g16
 Input=TS_4MU_phenylacetate_ZnHis3_OAc_ZnO.com
 Output=TS_4MU_phenylacetate_ZnHis3_OAc_ZnO.log
 Initial command:
 /sw/contrib/chem-src/g16/c01/g16/l1.exe "/scr/Gau-19137.inp" -scrdir="/scr/"
 Entering Link 1 = /sw/contrib/chem-src/g16/c01/g16/l1.exe PID=     19138.
  
 Copyright (c) 1988-2019, Gaussian, Inc.  All Rights Reserved.
  
 This is part of the Gaussian(R) 16 program.  It is based on
 the Gaussian(R) 09 system (copyright 2009, Gaussian, Inc.),
 the Gaussian(R) 03 system (copyright 2003, Gaussian, Inc.),
 the Gaussian(R) 98 system (copyright 1998, Gaussian, Inc.),
 the Gaussian(R) 94 system (copyright 1995, Gaussian, Inc.),
 the Gaussian 92(TM) system (copyright 1992, Gaussian, Inc.),
 the Gaussian 90(TM) system (copyright 1990, Gaussian, Inc.),
 the Gaussian 88(TM) system (copyright 1988, Gaussian, Inc.),
 the Gaussian 86(TM) system (copyright 1986, Carnegie Mellon
 University), and the Gaussian 82(TM) system (copyright 1983,
 Carnegie Mellon University). Gaussian is a federally registered
 trademark of Gaussian, Inc.
  
 This software contains proprietary and confidential information,
 including trade secrets, belonging to Gaussian, Inc.
  
 This software is provided under written license and may be
 used, copied, transmitted, or stored only in accord with that
 written license.
  
 The following legend is applicable only to US Government
 contracts under FAR:
  
                    RESTRICTED RIGHTS LEGEND
  
 Use, reproduction and disclosure by the US Government is
 subject to restrictions as set forth in subparagraphs (a)
 and (c) of the Commercial Computer Software - Restricted
 Rights clause in FAR 52.227-19.
  
 Gaussian, Inc.
 340 Quinnipiac St., Bldg. 40, Wallingford CT 06492
  
  
 ---------------------------------------------------------------
 Warning -- This program may not be used in any manner that
 competes with the business of Gaussian, Inc. or will provide
 assistance to any competitor of Gaussian, Inc.  The licensee
 of this program is prohibited from giving any competitor of
 Gaussian, Inc. access to this program.  By using this program,
 the user acknowledges that Gaussian, Inc. is engaged in the
 business of creating and licensing software in the field of
 computational chemistry and represents and warrants to the
 licensee that it is not a competitor of Gaussian, Inc. and that
 it will not use this program in any manner prohibited above.
 ---------------------------------------------------------------
  

 Cite this work as:
 Gaussian 16, Revision C.01,
 M. J. Frisch, G. W. Trucks, H. B. Schlegel, G. E. Scuseria, 
 M. A. Robb, J. R. Cheeseman, G. Scalmani, V. Barone, 
 G. A. Petersson, H. Nakatsuji, X. Li, M. Caricato, A. V. Marenich, 
 J. Bloino, B. G. Janesko, R. Gomperts, B. Mennucci, H. P. Hratchian, 
 J. V. Ortiz, A. F. Izmaylov, J. L. Sonnenberg, D. Williams-Young, 
 F. Ding, F. Lipparini, F. Egidi, J. Goings, B. Peng, A. Petrone, 
 T. Henderson, D. Ranasinghe, V. G. Zakrzewski, J. Gao, N. Rega, 
 G. Zheng, W. Liang, M. Hada, M. Ehara, K. Toyota, R. Fukuda, 
 J. Hasegawa, M. Ishida, T. Nakajima, Y. Honda, O. Kitao, H. Nakai, 
 T. Vreven, K. Throssell, J. A. Montgomery, Jr., J. E. Peralta, 
 F. Ogliaro, M. J. Bearpark, J. J. Heyd, E. N. Brothers, K. N. Kudin, 
 V. N. Staroverov, T. A. Keith, R. Kobayashi, J. Normand, 
 K. Raghavachari, A. P. Rendell, J. C. Burant, S. S. Iyengar, 
 J. Tomasi, M. Cossi, J. M. Millam, M. Klene, C. Adamo, R. Cammi, 
 J. W. Ochterski, R. L. Martin, K. Morokuma, O. Farkas, 
 J. B. Foresman, and D. J. Fox, Gaussian, Inc., Wallingford CT, 2019.
 
 ******************************************
 Gaussian 16:  EM64L-G16RevC.01  3-Jul-2019
                 7-Mar-2024 
 ******************************************
 %Mem=47619MB
 %NProc=20
 Will use up to   20 processors via shared memory.
 %chk=TS_4MU_phenylacetate_ZnHis3_OAc_ZnO
 ----------------------------------------------------------------------
 # B3LYP EmpiricalDispersion=GD3BJ genECP opt=(modredundant,maxcycle=45
 0) scf=xqc SCRF=(CPCM,solvent=water)
 ----------------------------------------------------------------------
 1/6=450,18=120,19=15,26=3,38=1/1,3;
 2/9=110,12=2,17=6,18=5,40=1/2;
 3/5=7,11=2,16=1,17=8,25=1,30=1,70=2101,71=1,72=1,74=-5,124=41/1,2,3;
 4//1;
 5/5=2,8=3,13=1,38=5,53=1/2,8;
 6/7=2,8=2,9=2,10=2,28=1/1;
 7//1,2,3,16;
 1/6=450,18=20,19=15,26=3/3(2);
 2/9=110/2;
 99//99;
 2/9=110/2;
 3/5=7,6=1,11=2,16=1,17=8,25=1,30=1,70=2105,71=1,72=1,74=-5,82=7,124=41/1,2,3;
 4/5=5,16=3,69=1/1;
 5/5=2,8=3,13=1,38=5,53=1/2,8;
 7//1,2,3,16;
 1/6=450,18=20,19=15,26=3/3(-5);
 2/9=110/2;
 6/7=2,8=2,9=2,10=2,19=2,28=1/1;
 99/9=1/99;
 ---
 asd
 ---
 Symbolic Z-matrix:
 Charge =  1 Multiplicity = 1
 30                   -1.27923  -0.49034  -0.27786 
 8                    -0.99145   0.9794    1.10391 
 6                    -0.81096  -0.19755   2.42109 
 8                    -0.74394  -1.27804   1.77185 
 8                     0.36013   0.31185   3.04746 
 1                    -1.71914   1.6284    1.18968 
 6                     1.52386   0.33839   2.32198 
 6                     2.07272  -0.80247   1.74213 
 6                     2.16648   1.58242   2.20402 
 6                     3.2435   -0.66906   1.00165 
 6                     3.34864   1.68567   1.49084 
 6                     3.91336   0.56016   0.85803 
 1                     1.58375  -1.76108   1.82224 
 1                     1.71202   2.4505    2.6679 
 1                     3.83509   2.6502    1.40034 
 6                    -1.97776   0.10346   3.35008 
 1                    -1.79769  -0.48368   4.26126 
 1                    -1.94645   1.15768   3.64434 
 7                    -2.37434   0.72374  -1.59861 
 6                    -1.89533   1.42488  -2.61892 
 6                    -3.69298   1.10899  -1.43246 
 6                    -4.00537   2.05611  -2.37035 
 7                    -2.85434   2.24112  -3.10855 
 1                    -0.89458   1.36366  -3.01679 
 1                    -2.74534   2.87099  -3.89259 
 1                    -4.91211   2.6013   -2.57704 
 1                    -4.31017   0.68187  -0.65701 
 7                    -2.39761  -2.17864  -0.53971 
 6                    -3.13586  -2.4628   -1.60771 
 6                    -2.48848  -3.26212   0.3174 
 6                    -3.29693  -4.20858  -0.25132 
 7                    -3.69356  -3.68293  -1.46579 
 1                    -3.28037  -1.8234   -2.46424 
 1                    -4.303    -4.13101  -2.13733 
 1                    -3.62185  -5.18005   0.08469 
 1                    -1.97251  -3.25207   1.26311 
 7                     0.48535  -0.7533   -1.28037 
 6                     1.00004  -1.93316  -1.61138 
 6                     1.37871   0.21346  -1.71468 
 6                     2.43782  -0.40492  -2.32279 
 7                     2.1744   -1.75835  -2.25222 
 1                     0.55823  -2.89542  -1.40447 
 1                     2.80854  -2.49766  -2.52937 
 1                     3.33376  -0.01862  -2.78016 
 1                     1.20251   1.26395  -1.54027 
 1                    -0.06815   2.15522   0.38906 
 8                     0.16849   2.93212  -0.20745 
 8                    -1.96505   3.47624   0.27948 
 6                    -0.92481   3.69634  -0.32795 
 6                    -0.72651   4.84448  -1.28225 
 1                    -0.43014   4.46346  -2.26458 
 1                    -1.64769   5.4208   -1.36936 
 1                     0.08279   5.48904  -0.92383 
 8                     3.70335  -1.80607   0.39433 
 6                     4.78596  -1.79121  -0.46689 
 8                     5.02235  -2.82398  -1.07363 
 6                     5.51739  -0.54892  -0.56898 
 1                     6.39555  -0.57089  -1.20379 
 6                     5.11662   0.59399   0.05327 
 6                     5.88042   1.87654  -0.10682 
 1                     6.19577   2.26689   0.86757 
 1                     6.7675    1.73028  -0.72678 
 1                     5.25328   2.64485  -0.57419 
 6                    -3.32023  -0.21927   2.668 
 6                    -4.12285   0.80245   2.133 
 6                    -3.77728  -1.54381   2.563 
 6                    -5.33796   0.51066   1.5156 
 6                    -4.9923   -1.83623   1.94571 
 6                    -5.77852  -0.81024   1.41901 
 1                    -3.78961   1.83325   2.20275 
 1                    -3.17357  -2.34937   2.96929 
 1                    -5.94169   1.31711   1.1092 
 1                    -5.32531  -2.86787   1.87617 
 1                    -6.72523  -1.03783   0.93801 
 
 Add virtual bond connecting atoms H46        and O2         Dist= 3.13D+00.
 Add virtual bond connecting atoms C3         and O2         Dist= 3.36D+00.
 The following ModRedundant input section has been read:
 B       2       3 F                                                           
 

 GradGradGradGradGradGradGradGradGradGradGradGradGradGradGradGradGradGrad
 Berny optimization.
 Initialization pass.
                           ----------------------------
                           !    Initial Parameters    !
                           ! (Angstroms and Degrees)  !
 --------------------------                            --------------------------
 ! Name  Definition              Value          Derivative Info.                !
 --------------------------------------------------------------------------------
 ! R1    R(1,2)                  2.0377         estimate D2E/DX2                !
 ! R2    R(1,19)                 2.1018         estimate D2E/DX2                !
 ! R3    R(1,28)                 2.042          estimate D2E/DX2                !
 ! R4    R(1,37)                 2.0464         estimate D2E/DX2                !
 ! R5    R(2,3)                  1.7756         Frozen                          !
 ! R6    R(2,6)                  0.9788         estimate D2E/DX2                !
 ! R7    R(2,46)                 1.6571         estimate D2E/DX2                !
 ! R8    R(3,4)                  1.2623         estimate D2E/DX2                !
 ! R9    R(3,5)                  1.4224         estimate D2E/DX2                !
 ! R10   R(3,16)                 1.5215         estimate D2E/DX2                !
 ! R11   R(5,7)                  1.3716         estimate D2E/DX2                !
 ! R12   R(7,8)                  1.3925         estimate D2E/DX2                !
 ! R13   R(7,9)                  1.4052         estimate D2E/DX2                !
 ! R14   R(8,10)                 1.3917         estimate D2E/DX2                !
 ! R15   R(8,13)                 1.0791         estimate D2E/DX2                !
 ! R16   R(9,11)                 1.3845         estimate D2E/DX2                !
 ! R17   R(9,14)                 1.0841         estimate D2E/DX2                !
 ! R18   R(10,12)                1.4072         estimate D2E/DX2                !
 ! R19   R(10,54)                1.3686         estimate D2E/DX2                !
 ! R20   R(11,12)                1.4093         estimate D2E/DX2                !
 ! R21   R(11,15)                1.084          estimate D2E/DX2                !
 ! R22   R(12,59)                1.448          estimate D2E/DX2                !
 ! R23   R(16,17)                1.0988         estimate D2E/DX2                !
 ! R24   R(16,18)                1.095          estimate D2E/DX2                !
 ! R25   R(16,64)                1.54           estimate D2E/DX2                !
 ! R26   R(19,20)                1.3274         estimate D2E/DX2                !
 ! R27   R(19,21)                1.3838         estimate D2E/DX2                !
 ! R28   R(20,23)                1.3512         estimate D2E/DX2                !
 ! R29   R(20,24)                1.0787         estimate D2E/DX2                !
 ! R30   R(21,22)                1.369          estimate D2E/DX2                !
 ! R31   R(21,27)                1.0792         estimate D2E/DX2                !
 ! R32   R(22,23)                1.3799         estimate D2E/DX2                !
 ! R33   R(22,26)                1.078          estimate D2E/DX2                !
 ! R34   R(23,25)                1.0116         estimate D2E/DX2                !
 ! R35   R(28,29)                1.3291         estimate D2E/DX2                !
 ! R36   R(28,30)                1.3845         estimate D2E/DX2                !
 ! R37   R(29,32)                1.349          estimate D2E/DX2                !
 ! R38   R(29,33)                1.0786         estimate D2E/DX2                !
 ! R39   R(30,31)                1.3685         estimate D2E/DX2                !
 ! R40   R(30,36)                1.0774         estimate D2E/DX2                !
 ! R41   R(31,32)                1.3815         estimate D2E/DX2                !
 ! R42   R(31,35)                1.0781         estimate D2E/DX2                !
 ! R43   R(32,34)                1.0115         estimate D2E/DX2                !
 ! R44   R(37,38)                1.3291         estimate D2E/DX2                !
 ! R45   R(37,39)                1.3861         estimate D2E/DX2                !
 ! R46   R(38,41)                1.3492         estimate D2E/DX2                !
 ! R47   R(38,42)                1.0789         estimate D2E/DX2                !
 ! R48   R(39,40)                1.3689         estimate D2E/DX2                !
 ! R49   R(39,45)                1.0793         estimate D2E/DX2                !
 ! R50   R(40,41)                1.3806         estimate D2E/DX2                !
 ! R51   R(40,44)                1.0776         estimate D2E/DX2                !
 ! R52   R(41,43)                1.0127         estimate D2E/DX2                !
 ! R53   R(46,47)                1.0077         estimate D2E/DX2                !
 ! R54   R(47,49)                1.3393         estimate D2E/DX2                !
 ! R55   R(48,49)                1.2245         estimate D2E/DX2                !
 ! R56   R(49,50)                1.5061         estimate D2E/DX2                !
 ! R57   R(50,51)                1.0945         estimate D2E/DX2                !
 ! R58   R(50,52)                1.0901         estimate D2E/DX2                !
 ! R59   R(50,53)                1.0949         estimate D2E/DX2                !
 ! R60   R(54,55)                1.3835         estimate D2E/DX2                !
 ! R61   R(55,56)                1.2209         estimate D2E/DX2                !
 ! R62   R(55,57)                1.4452         estimate D2E/DX2                !
 ! R63   R(57,58)                1.0838         estimate D2E/DX2                !
 ! R64   R(57,59)                1.3616         estimate D2E/DX2                !
 ! R65   R(59,60)                1.5013         estimate D2E/DX2                !
 ! R66   R(60,61)                1.096          estimate D2E/DX2                !
 ! R67   R(60,62)                1.0921         estimate D2E/DX2                !
 ! R68   R(60,63)                1.0964         estimate D2E/DX2                !
 ! R69   R(64,65)                1.4051         estimate D2E/DX2                !
 ! R70   R(64,66)                1.4051         estimate D2E/DX2                !
 ! R71   R(65,67)                1.3939         estimate D2E/DX2                !
 ! R72   R(65,70)                1.0856         estimate D2E/DX2                !
 ! R73   R(66,68)                1.3939         estimate D2E/DX2                !
 ! R74   R(66,71)                1.0856         estimate D2E/DX2                !
 ! R75   R(67,69)                1.3958         estimate D2E/DX2                !
 ! R76   R(67,72)                1.0863         estimate D2E/DX2                !
 ! R77   R(68,69)                1.3958         estimate D2E/DX2                !
 ! R78   R(68,73)                1.0863         estimate D2E/DX2                !
 ! R79   R(69,74)                1.086          estimate D2E/DX2                !
 ! A1    A(2,1,19)              94.7644         estimate D2E/DX2                !
 ! A2    A(2,1,28)             139.5215         estimate D2E/DX2                !
 ! A3    A(2,1,37)             107.6433         estimate D2E/DX2                !
 ! A4    A(19,1,28)             96.41           estimate D2E/DX2                !
 ! A5    A(19,1,37)            102.4543         estimate D2E/DX2                !
 ! A6    A(28,1,37)            107.6498         estimate D2E/DX2                !
 ! A7    A(1,2,3)               92.2518         estimate D2E/DX2                !
 ! A8    A(1,2,6)              115.636          estimate D2E/DX2                !
 ! A9    A(1,2,46)             107.3348         estimate D2E/DX2                !
 ! A10   A(3,2,6)              116.7473         estimate D2E/DX2                !
 ! A11   A(3,2,46)             137.1977         estimate D2E/DX2                !
 ! A12   A(6,2,46)              88.9435         estimate D2E/DX2                !
 ! A13   A(2,3,4)              101.0244         estimate D2E/DX2                !
 ! A14   A(2,3,5)               99.9605         estimate D2E/DX2                !
 ! A15   A(2,3,16)             104.1137         estimate D2E/DX2                !
 ! A16   A(4,3,5)              119.2953         estimate D2E/DX2                !
 ! A17   A(4,3,16)             121.6062         estimate D2E/DX2                !
 ! A18   A(5,3,16)             106.9565         estimate D2E/DX2                !
 ! A19   A(3,5,7)              118.1994         estimate D2E/DX2                !
 ! A20   A(5,7,8)              122.6035         estimate D2E/DX2                !
 ! A21   A(5,7,9)              116.7149         estimate D2E/DX2                !
 ! A22   A(8,7,9)              120.6722         estimate D2E/DX2                !
 ! A23   A(7,8,10)             118.3339         estimate D2E/DX2                !
 ! A24   A(7,8,13)             121.2183         estimate D2E/DX2                !
 ! A25   A(10,8,13)            120.3881         estimate D2E/DX2                !
 ! A26   A(7,9,11)             119.9847         estimate D2E/DX2                !
 ! A27   A(7,9,14)             118.769          estimate D2E/DX2                !
 ! A28   A(11,9,14)            121.241          estimate D2E/DX2                !
 ! A29   A(8,10,12)            122.5805         estimate D2E/DX2                !
 ! A30   A(8,10,54)            116.048          estimate D2E/DX2                !
 ! A31   A(12,10,54)           121.363          estimate D2E/DX2                !
 ! A32   A(9,11,12)            120.9234         estimate D2E/DX2                !
 ! A33   A(9,11,15)            119.5068         estimate D2E/DX2                !
 ! A34   A(12,11,15)           119.5566         estimate D2E/DX2                !
 ! A35   A(10,12,11)           117.4538         estimate D2E/DX2                !
 ! A36   A(10,12,59)           118.2094         estimate D2E/DX2                !
 ! A37   A(11,12,59)           124.3251         estimate D2E/DX2                !
 ! A38   A(3,16,17)            105.9572         estimate D2E/DX2                !
 ! A39   A(3,16,18)            109.4281         estimate D2E/DX2                !
 ! A40   A(3,16,64)            110.8927         estimate D2E/DX2                !
 ! A41   A(17,16,18)           106.6732         estimate D2E/DX2                !
 ! A42   A(17,16,64)           113.4629         estimate D2E/DX2                !
 ! A43   A(18,16,64)           110.2258         estimate D2E/DX2                !
 ! A44   A(1,19,20)            126.8758         estimate D2E/DX2                !
 ! A45   A(1,19,21)            125.5821         estimate D2E/DX2                !
 ! A46   A(20,19,21)           106.8047         estimate D2E/DX2                !
 ! A47   A(19,20,23)           109.9675         estimate D2E/DX2                !
 ! A48   A(19,20,24)           126.0377         estimate D2E/DX2                !
 ! A49   A(23,20,24)           123.9942         estimate D2E/DX2                !
 ! A50   A(19,21,22)           109.1346         estimate D2E/DX2                !
 ! A51   A(19,21,27)           121.4041         estimate D2E/DX2                !
 ! A52   A(22,21,27)           129.461          estimate D2E/DX2                !
 ! A53   A(21,22,23)           105.5996         estimate D2E/DX2                !
 ! A54   A(21,22,26)           132.3105         estimate D2E/DX2                !
 ! A55   A(23,22,26)           122.0899         estimate D2E/DX2                !
 ! A56   A(20,23,22)           108.4935         estimate D2E/DX2                !
 ! A57   A(20,23,25)           125.4867         estimate D2E/DX2                !
 ! A58   A(22,23,25)           126.0151         estimate D2E/DX2                !
 ! A59   A(1,28,29)            125.7354         estimate D2E/DX2                !
 ! A60   A(1,28,30)            127.1277         estimate D2E/DX2                !
 ! A61   A(29,28,30)           107.0799         estimate D2E/DX2                !
 ! A62   A(28,29,32)           109.7837         estimate D2E/DX2                !
 ! A63   A(28,29,33)           125.8605         estimate D2E/DX2                !
 ! A64   A(32,29,33)           124.3554         estimate D2E/DX2                !
 ! A65   A(28,30,31)           108.8283         estimate D2E/DX2                !
 ! A66   A(28,30,36)           120.3118         estimate D2E/DX2                !
 ! A67   A(31,30,36)           130.8563         estimate D2E/DX2                !
 ! A68   A(30,31,32)           105.7705         estimate D2E/DX2                !
 ! A69   A(30,31,35)           132.2017         estimate D2E/DX2                !
 ! A70   A(32,31,35)           122.0275         estimate D2E/DX2                !
 ! A71   A(29,32,31)           108.5376         estimate D2E/DX2                !
 ! A72   A(29,32,34)           125.4426         estimate D2E/DX2                !
 ! A73   A(31,32,34)           126.0191         estimate D2E/DX2                !
 ! A74   A(1,37,38)            124.7488         estimate D2E/DX2                !
 ! A75   A(1,37,39)            128.2873         estimate D2E/DX2                !
 ! A76   A(38,37,39)           106.9489         estimate D2E/DX2                !
 ! A77   A(37,38,41)           109.8973         estimate D2E/DX2                !
 ! A78   A(37,38,42)           125.8319         estimate D2E/DX2                !
 ! A79   A(41,38,42)           124.2708         estimate D2E/DX2                !
 ! A80   A(37,39,40)           108.8308         estimate D2E/DX2                !
 ! A81   A(37,39,45)           121.5313         estimate D2E/DX2                !
 ! A82   A(40,39,45)           129.6231         estimate D2E/DX2                !
 ! A83   A(39,40,41)           105.8133         estimate D2E/DX2                !
 ! A84   A(39,40,44)           132.0599         estimate D2E/DX2                !
 ! A85   A(41,40,44)           122.1247         estimate D2E/DX2                !
 ! A86   A(38,41,40)           108.5036         estimate D2E/DX2                !
 ! A87   A(38,41,43)           125.4821         estimate D2E/DX2                !
 ! A88   A(40,41,43)           125.6056         estimate D2E/DX2                !
 ! A89   A(2,46,47)            158.9506         estimate D2E/DX2                !
 ! A90   A(46,47,49)           107.5461         estimate D2E/DX2                !
 ! A91   A(47,49,48)           123.1103         estimate D2E/DX2                !
 ! A92   A(47,49,50)           112.6133         estimate D2E/DX2                !
 ! A93   A(48,49,50)           124.2762         estimate D2E/DX2                !
 ! A94   A(49,50,51)           109.8133         estimate D2E/DX2                !
 ! A95   A(49,50,52)           110.0239         estimate D2E/DX2                !
 ! A96   A(49,50,53)           109.796          estimate D2E/DX2                !
 ! A97   A(51,50,52)           109.9467         estimate D2E/DX2                !
 ! A98   A(51,50,53)           107.372          estimate D2E/DX2                !
 ! A99   A(52,50,53)           109.8484         estimate D2E/DX2                !
 ! A100  A(10,54,55)           122.0216         estimate D2E/DX2                !
 ! A101  A(54,55,56)           116.8581         estimate D2E/DX2                !
 ! A102  A(54,55,57)           116.6958         estimate D2E/DX2                !
 ! A103  A(56,55,57)           126.4429         estimate D2E/DX2                !
 ! A104  A(55,57,58)           115.7227         estimate D2E/DX2                !
 ! A105  A(55,57,59)           122.7012         estimate D2E/DX2                !
 ! A106  A(58,57,59)           121.5452         estimate D2E/DX2                !
 ! A107  A(12,59,57)           118.6176         estimate D2E/DX2                !
 ! A108  A(12,59,60)           120.1323         estimate D2E/DX2                !
 ! A109  A(57,59,60)           121.2373         estimate D2E/DX2                !
 ! A110  A(59,60,61)           110.8446         estimate D2E/DX2                !
 ! A111  A(59,60,62)           111.0618         estimate D2E/DX2                !
 ! A112  A(59,60,63)           110.6779         estimate D2E/DX2                !
 ! A113  A(61,60,62)           108.5822         estimate D2E/DX2                !
 ! A114  A(61,60,63)           107.096          estimate D2E/DX2                !
 ! A115  A(62,60,63)           108.4509         estimate D2E/DX2                !
 ! A116  A(16,64,65)           120.9441         estimate D2E/DX2                !
 ! A117  A(16,64,66)           120.9441         estimate D2E/DX2                !
 ! A118  A(65,64,66)           118.1119         estimate D2E/DX2                !
 ! A119  A(64,65,67)           120.9574         estimate D2E/DX2                !
 ! A120  A(64,65,70)           119.3831         estimate D2E/DX2                !
 ! A121  A(67,65,70)           119.6595         estimate D2E/DX2                !
 ! A122  A(64,66,68)           120.9574         estimate D2E/DX2                !
 ! A123  A(64,66,71)           119.3831         estimate D2E/DX2                !
 ! A124  A(68,66,71)           119.6595         estimate D2E/DX2                !
 ! A125  A(65,67,69)           120.2599         estimate D2E/DX2                !
 ! A126  A(65,67,72)           119.6574         estimate D2E/DX2                !
 ! A127  A(69,67,72)           120.0828         estimate D2E/DX2                !
 ! A128  A(66,68,69)           120.2599         estimate D2E/DX2                !
 ! A129  A(66,68,73)           119.6574         estimate D2E/DX2                !
 ! A130  A(69,68,73)           120.0828         estimate D2E/DX2                !
 ! A131  A(67,69,68)           119.4536         estimate D2E/DX2                !
 ! A132  A(67,69,74)           120.2732         estimate D2E/DX2                !
 ! A133  A(68,69,74)           120.2732         estimate D2E/DX2                !
 ! D1    D(19,1,2,3)           154.4945         estimate D2E/DX2                !
 ! D2    D(19,1,2,6)            33.266          estimate D2E/DX2                !
 ! D3    D(19,1,2,46)          -64.1092         estimate D2E/DX2                !
 ! D4    D(28,1,2,3)            48.8162         estimate D2E/DX2                !
 ! D5    D(28,1,2,6)           -72.4124         estimate D2E/DX2                !
 ! D6    D(28,1,2,46)         -169.7875         estimate D2E/DX2                !
 ! D7    D(37,1,2,3)          -100.8149         estimate D2E/DX2                !
 ! D8    D(37,1,2,6)           137.9566         estimate D2E/DX2                !
 ! D9    D(37,1,2,46)           40.5814         estimate D2E/DX2                !
 ! D10   D(2,1,19,20)           92.8354         estimate D2E/DX2                !
 ! D11   D(2,1,19,21)          -76.0074         estimate D2E/DX2                !
 ! D12   D(28,1,19,20)        -126.1367         estimate D2E/DX2                !
 ! D13   D(28,1,19,21)          65.0205         estimate D2E/DX2                !
 ! D14   D(37,1,19,20)         -16.426          estimate D2E/DX2                !
 ! D15   D(37,1,19,21)         174.7312         estimate D2E/DX2                !
 ! D16   D(2,1,28,29)          129.2384         estimate D2E/DX2                !
 ! D17   D(2,1,28,30)          -53.8663         estimate D2E/DX2                !
 ! D18   D(19,1,28,29)          24.1451         estimate D2E/DX2                !
 ! D19   D(19,1,28,30)        -158.9596         estimate D2E/DX2                !
 ! D20   D(37,1,28,29)         -81.1318         estimate D2E/DX2                !
 ! D21   D(37,1,28,30)          95.7635         estimate D2E/DX2                !
 ! D22   D(2,1,37,38)          137.9804         estimate D2E/DX2                !
 ! D23   D(2,1,37,39)          -40.426          estimate D2E/DX2                !
 ! D24   D(19,1,37,38)        -122.8415         estimate D2E/DX2                !
 ! D25   D(19,1,37,39)          58.7521         estimate D2E/DX2                !
 ! D26   D(28,1,37,38)         -21.874          estimate D2E/DX2                !
 ! D27   D(28,1,37,39)         159.7196         estimate D2E/DX2                !
 ! D28   D(1,2,3,4)              9.9109         estimate D2E/DX2                !
 ! D29   D(1,2,3,5)            132.6185         estimate D2E/DX2                !
 ! D30   D(1,2,3,16)          -116.9258         estimate D2E/DX2                !
 ! D31   D(6,2,3,4)            130.2213         estimate D2E/DX2                !
 ! D32   D(6,2,3,5)           -107.071          estimate D2E/DX2                !
 ! D33   D(6,2,3,16)             3.3846         estimate D2E/DX2                !
 ! D34   D(46,2,3,4)          -108.86           estimate D2E/DX2                !
 ! D35   D(46,2,3,5)            13.8477         estimate D2E/DX2                !
 ! D36   D(46,2,3,16)          124.3033         estimate D2E/DX2                !
 ! D37   D(1,2,46,47)           74.742          estimate D2E/DX2                !
 ! D38   D(3,2,46,47)         -171.8284         estimate D2E/DX2                !
 ! D39   D(6,2,46,47)          -41.8452         estimate D2E/DX2                !
 ! D40   D(2,3,5,7)            -62.509          estimate D2E/DX2                !
 ! D41   D(4,3,5,7)             46.2239         estimate D2E/DX2                !
 ! D42   D(16,3,5,7)          -170.7115         estimate D2E/DX2                !
 ! D43   D(2,3,16,17)         -170.2394         estimate D2E/DX2                !
 ! D44   D(2,3,16,18)          -55.5763         estimate D2E/DX2                !
 ! D45   D(2,3,16,64)           66.2286         estimate D2E/DX2                !
 ! D46   D(4,3,16,17)           77.0397         estimate D2E/DX2                !
 ! D47   D(4,3,16,18)         -168.2972         estimate D2E/DX2                !
 ! D48   D(4,3,16,64)          -46.4923         estimate D2E/DX2                !
 ! D49   D(5,3,16,17)          -64.9839         estimate D2E/DX2                !
 ! D50   D(5,3,16,18)           49.6791         estimate D2E/DX2                !
 ! D51   D(5,3,16,64)          171.484          estimate D2E/DX2                !
 ! D52   D(3,5,7,8)            -56.7669         estimate D2E/DX2                !
 ! D53   D(3,5,7,9)            124.3489         estimate D2E/DX2                !
 ! D54   D(5,7,8,10)           178.7278         estimate D2E/DX2                !
 ! D55   D(5,7,8,13)             1.5262         estimate D2E/DX2                !
 ! D56   D(9,7,8,10)            -2.4311         estimate D2E/DX2                !
 ! D57   D(9,7,8,13)          -179.6326         estimate D2E/DX2                !
 ! D58   D(5,7,9,11)           179.7521         estimate D2E/DX2                !
 ! D59   D(5,7,9,14)            -1.0729         estimate D2E/DX2                !
 ! D60   D(8,7,9,11)             0.845          estimate D2E/DX2                !
 ! D61   D(8,7,9,14)          -179.9799         estimate D2E/DX2                !
 ! D62   D(7,8,10,12)            2.2797         estimate D2E/DX2                !
 ! D63   D(7,8,10,54)         -176.6703         estimate D2E/DX2                !
 ! D64   D(13,8,10,12)         179.5053         estimate D2E/DX2                !
 ! D65   D(13,8,10,54)           0.5553         estimate D2E/DX2                !
 ! D66   D(7,9,11,12)            1.0019         estimate D2E/DX2                !
 ! D67   D(7,9,11,15)          179.6764         estimate D2E/DX2                !
 ! D68   D(14,9,11,12)        -178.1523         estimate D2E/DX2                !
 ! D69   D(14,9,11,15)           0.5222         estimate D2E/DX2                !
 ! D70   D(8,10,12,11)          -0.5018         estimate D2E/DX2                !
 ! D71   D(8,10,12,59)        -179.3154         estimate D2E/DX2                !
 ! D72   D(54,10,12,11)        178.3934         estimate D2E/DX2                !
 ! D73   D(54,10,12,59)         -0.4203         estimate D2E/DX2                !
 ! D74   D(8,10,54,55)         174.1216         estimate D2E/DX2                !
 ! D75   D(12,10,54,55)         -4.8422         estimate D2E/DX2                !
 ! D76   D(9,11,12,10)          -1.1649         estimate D2E/DX2                !
 ! D77   D(9,11,12,59)         177.5692         estimate D2E/DX2                !
 ! D78   D(15,11,12,10)       -179.8387         estimate D2E/DX2                !
 ! D79   D(15,11,12,59)         -1.1047         estimate D2E/DX2                !
 ! D80   D(10,12,59,57)          2.4875         estimate D2E/DX2                !
 ! D81   D(10,12,59,60)       -178.7976         estimate D2E/DX2                !
 ! D82   D(11,12,59,57)       -176.2378         estimate D2E/DX2                !
 ! D83   D(11,12,59,60)          2.4772         estimate D2E/DX2                !
 ! D84   D(3,16,64,65)        -101.96           estimate D2E/DX2                !
 ! D85   D(3,16,64,66)          78.04           estimate D2E/DX2                !
 ! D86   D(17,16,64,65)        138.931          estimate D2E/DX2                !
 ! D87   D(17,16,64,66)        -41.069          estimate D2E/DX2                !
 ! D88   D(18,16,64,65)         19.3769         estimate D2E/DX2                !
 ! D89   D(18,16,64,66)       -160.6231         estimate D2E/DX2                !
 ! D90   D(1,19,20,23)        -170.4998         estimate D2E/DX2                !
 ! D91   D(1,19,20,24)           9.792          estimate D2E/DX2                !
 ! D92   D(21,19,20,23)          0.0383         estimate D2E/DX2                !
 ! D93   D(21,19,20,24)       -179.6699         estimate D2E/DX2                !
 ! D94   D(1,19,21,22)         170.7069         estimate D2E/DX2                !
 ! D95   D(1,19,21,27)          -9.1325         estimate D2E/DX2                !
 ! D96   D(20,19,21,22)          0.0122         estimate D2E/DX2                !
 ! D97   D(20,19,21,27)       -179.8273         estimate D2E/DX2                !
 ! D98   D(19,20,23,22)         -0.0744         estimate D2E/DX2                !
 ! D99   D(19,20,23,25)       -179.3264         estimate D2E/DX2                !
 ! D100  D(24,20,23,22)        179.6411         estimate D2E/DX2                !
 ! D101  D(24,20,23,25)          0.3891         estimate D2E/DX2                !
 ! D102  D(19,21,22,23)         -0.0557         estimate D2E/DX2                !
 ! D103  D(19,21,22,26)        179.9589         estimate D2E/DX2                !
 ! D104  D(27,21,22,23)        179.7668         estimate D2E/DX2                !
 ! D105  D(27,21,22,26)         -0.2186         estimate D2E/DX2                !
 ! D106  D(21,22,23,20)          0.0786         estimate D2E/DX2                !
 ! D107  D(21,22,23,25)        179.3256         estimate D2E/DX2                !
 ! D108  D(26,22,23,20)       -179.9341         estimate D2E/DX2                !
 ! D109  D(26,22,23,25)         -0.6871         estimate D2E/DX2                !
 ! D110  D(1,28,29,32)         177.4252         estimate D2E/DX2                !
 ! D111  D(1,28,29,33)          -2.8145         estimate D2E/DX2                !
 ! D112  D(30,28,29,32)          0.0143         estimate D2E/DX2                !
 ! D113  D(30,28,29,33)        179.7747         estimate D2E/DX2                !
 ! D114  D(1,28,30,31)        -177.4002         estimate D2E/DX2                !
 ! D115  D(1,28,30,36)           3.2185         estimate D2E/DX2                !
 ! D116  D(29,28,30,31)         -0.0362         estimate D2E/DX2                !
 ! D117  D(29,28,30,36)       -179.4175         estimate D2E/DX2                !
 ! D118  D(28,29,32,31)          0.0126         estimate D2E/DX2                !
 ! D119  D(28,29,32,34)        179.7347         estimate D2E/DX2                !
 ! D120  D(33,29,32,31)       -179.7522         estimate D2E/DX2                !
 ! D121  D(33,29,32,34)         -0.0301         estimate D2E/DX2                !
 ! D122  D(28,30,31,32)          0.043          estimate D2E/DX2                !
 ! D123  D(28,30,31,35)       -179.7657         estimate D2E/DX2                !
 ! D124  D(36,30,31,32)        179.3368         estimate D2E/DX2                !
 ! D125  D(36,30,31,35)         -0.4719         estimate D2E/DX2                !
 ! D126  D(30,31,32,29)         -0.0343         estimate D2E/DX2                !
 ! D127  D(30,31,32,34)       -179.7543         estimate D2E/DX2                !
 ! D128  D(35,31,32,29)        179.7986         estimate D2E/DX2                !
 ! D129  D(35,31,32,34)          0.0785         estimate D2E/DX2                !
 ! D130  D(1,37,38,41)        -179.4451         estimate D2E/DX2                !
 ! D131  D(1,37,38,42)           0.463          estimate D2E/DX2                !
 ! D132  D(39,37,38,41)         -0.7527         estimate D2E/DX2                !
 ! D133  D(39,37,38,42)        179.1554         estimate D2E/DX2                !
 ! D134  D(1,37,39,40)         179.0648         estimate D2E/DX2                !
 ! D135  D(1,37,39,45)           0.3321         estimate D2E/DX2                !
 ! D136  D(38,37,39,40)          0.4335         estimate D2E/DX2                !
 ! D137  D(38,37,39,45)       -178.2991         estimate D2E/DX2                !
 ! D138  D(37,38,41,40)          0.7934         estimate D2E/DX2                !
 ! D139  D(37,38,41,43)        173.7758         estimate D2E/DX2                !
 ! D140  D(42,38,41,40)       -179.1165         estimate D2E/DX2                !
 ! D141  D(42,38,41,43)         -6.1341         estimate D2E/DX2                !
 ! D142  D(37,39,40,41)          0.0398         estimate D2E/DX2                !
 ! D143  D(37,39,40,44)       -179.4333         estimate D2E/DX2                !
 ! D144  D(45,39,40,41)        178.6374         estimate D2E/DX2                !
 ! D145  D(45,39,40,44)         -0.8358         estimate D2E/DX2                !
 ! D146  D(39,40,41,38)         -0.4958         estimate D2E/DX2                !
 ! D147  D(39,40,41,43)       -173.4674         estimate D2E/DX2                !
 ! D148  D(44,40,41,38)        179.0423         estimate D2E/DX2                !
 ! D149  D(44,40,41,43)          6.0708         estimate D2E/DX2                !
 ! D150  D(2,46,47,49)          31.3399         estimate D2E/DX2                !
 ! D151  D(46,47,49,48)          4.3083         estimate D2E/DX2                !
 ! D152  D(46,47,49,50)       -175.8393         estimate D2E/DX2                !
 ! D153  D(47,49,50,51)         57.2948         estimate D2E/DX2                !
 ! D154  D(47,49,50,52)        178.4423         estimate D2E/DX2                !
 ! D155  D(47,49,50,53)        -60.5433         estimate D2E/DX2                !
 ! D156  D(48,49,50,51)       -122.8548         estimate D2E/DX2                !
 ! D157  D(48,49,50,52)         -1.7073         estimate D2E/DX2                !
 ! D158  D(48,49,50,53)        119.3071         estimate D2E/DX2                !
 ! D159  D(10,54,55,56)       -171.8668         estimate D2E/DX2                !
 ! D160  D(10,54,55,57)          7.5307         estimate D2E/DX2                !
 ! D161  D(54,55,57,58)        176.6228         estimate D2E/DX2                !
 ! D162  D(54,55,57,59)         -5.3731         estimate D2E/DX2                !
 ! D163  D(56,55,57,58)         -4.0453         estimate D2E/DX2                !
 ! D164  D(56,55,57,59)        173.9588         estimate D2E/DX2                !
 ! D165  D(55,57,59,12)          0.4591         estimate D2E/DX2                !
 ! D166  D(55,57,59,60)       -178.2411         estimate D2E/DX2                !
 ! D167  D(58,57,59,12)        178.3491         estimate D2E/DX2                !
 ! D168  D(58,57,59,60)         -0.351          estimate D2E/DX2                !
 ! D169  D(12,59,60,61)         58.2506         estimate D2E/DX2                !
 ! D170  D(12,59,60,62)        179.0493         estimate D2E/DX2                !
 ! D171  D(12,59,60,63)        -60.4301         estimate D2E/DX2                !
 ! D172  D(57,59,60,61)       -123.0688         estimate D2E/DX2                !
 ! D173  D(57,59,60,62)         -2.2701         estimate D2E/DX2                !
 ! D174  D(57,59,60,63)        118.2505         estimate D2E/DX2                !
 ! D175  D(16,64,65,67)        180.0            estimate D2E/DX2                !
 ! D176  D(16,64,65,70)          0.0            estimate D2E/DX2                !
 ! D177  D(66,64,65,67)          0.0            estimate D2E/DX2                !
 ! D178  D(66,64,65,70)       -180.0            estimate D2E/DX2                !
 ! D179  D(16,64,66,68)        180.0            estimate D2E/DX2                !
 ! D180  D(16,64,66,71)          0.0            estimate D2E/DX2                !
 ! D181  D(65,64,66,68)          0.0            estimate D2E/DX2                !
 ! D182  D(65,64,66,71)        180.0            estimate D2E/DX2                !
 ! D183  D(64,65,67,69)          0.0            estimate D2E/DX2                !
 ! D184  D(64,65,67,72)       -180.0            estimate D2E/DX2                !
 ! D185  D(70,65,67,69)        180.0            estimate D2E/DX2                !
 ! D186  D(70,65,67,72)          0.0            estimate D2E/DX2                !
 ! D187  D(64,66,68,69)          0.0            estimate D2E/DX2                !
 ! D188  D(64,66,68,73)        180.0            estimate D2E/DX2                !
 ! D189  D(71,66,68,69)        180.0            estimate D2E/DX2                !
 ! D190  D(71,66,68,73)          0.0            estimate D2E/DX2                !
 ! D191  D(65,67,69,68)          0.0            estimate D2E/DX2                !
 ! D192  D(65,67,69,74)        180.0            estimate D2E/DX2                !
 ! D193  D(72,67,69,68)        180.0            estimate D2E/DX2                !
 ! D194  D(72,67,69,74)          0.0            estimate D2E/DX2                !
 ! D195  D(66,68,69,67)          0.0            estimate D2E/DX2                !
 ! D196  D(66,68,69,74)        180.0            estimate D2E/DX2                !
 ! D197  D(73,68,69,67)        180.0            estimate D2E/DX2                !
 ! D198  D(73,68,69,74)          0.0            estimate D2E/DX2                !
 --------------------------------------------------------------------------------
 Trust Radius=3.00D-01 FncErr=1.00D-07 GrdErr=1.00D-06 EigMax=2.50D+02 EigMin=1.00D-04
 Number of steps in this run=    444 maximum allowed number of steps=    444.
 GradGradGradGradGradGradGradGradGradGradGradGradGradGradGradGradGradGrad

 Stoichiometry    C29H31N6O7Zn(1+)
 Framework group  C1[X(C29H31N6O7Zn)]
 Deg. of freedom   216
 Full point group                 C1      NOp   1
 Largest Abelian subgroup         C1      NOp   1
 Largest concise Abelian subgroup C1      NOp   1
                         Standard orientation:                         
 ---------------------------------------------------------------------
 Center     Atomic      Atomic             Coordinates (Angstroms)
 Number     Number       Type             X           Y           Z
 ---------------------------------------------------------------------
      1         30           0       -0.914242   -0.355466   -0.441039
      2          8           0       -0.635639    0.973384    1.078431
      3          6           0       -0.578637   -0.320492    2.293095
      4          8           0       -0.525176   -1.342779    1.554498
      5          8           0        0.578760    0.074706    3.019408
      6          1           0       -1.337221    1.647491    1.185459
      7          6           0        1.779713    0.106675    2.357594
      8          6           0        2.307429   -1.005357    1.706483
      9          6           0        2.482563    1.323166    2.382597
     10          6           0        3.520974   -0.866095    1.039594
     11          6           0        3.704655    1.429502    1.740751
     12          6           0        4.251713    0.336542    1.039104
     13          1           0        1.772612   -1.942121    1.676790
     14          1           0        2.043067    2.169162    2.898750
     15          1           0        4.237782    2.373180    1.760502
     16          6           0       -1.778945   -0.043983    3.186323
     17          1           0       -1.674304   -0.715838    4.049498
     18          1           0       -1.716462    0.978034    3.574312
     19          7           0       -1.881796    1.020590   -1.701176
     20          6           0       -1.318025    1.782942   -2.630186
     21          6           0       -3.188947    1.454331   -1.566852
     22          6           0       -3.408103    2.493201   -2.431143
     23          7           0       -2.212082    2.684575   -3.092152
     24          1           0       -0.301125    1.707262   -2.981954
     25          1           0       -2.033257    3.373757   -3.810746
     26          1           0       -4.277259    3.098097   -2.633139
     27          1           0       -3.865231    0.992600   -0.863904
     28          7           0       -2.091161   -1.957823   -0.906896
     29          6           0       -2.783072   -2.111963   -2.031120
     30          6           0       -2.276037   -3.105569   -0.155031
     31          6           0       -3.094253   -3.958454   -0.844898
     32          7           0       -3.401420   -3.310920   -2.025963
     33          1           0       -2.852828   -1.394578   -2.833519
     34          1           0       -3.993387   -3.668777   -2.763982
     35          1           0       -3.479706   -4.938201   -0.613052
     36          1           0       -1.811532   -3.202692    0.812181
     37          7           0        0.888028   -0.617127   -1.374463
     38          6           0        1.366587   -1.787797   -1.783179
     39          6           0        1.845591    0.338509   -1.676420
     40          6           0        2.907125   -0.276245   -2.283966
     41          7           0        2.580213   -1.616130   -2.347083
     42          1           0        0.871853   -2.741475   -1.684714
     43          1           0        3.194686   -2.358960   -2.657152
     44          1           0        3.842615    0.103668   -2.660323
     45          1           0        1.707322    1.377369   -1.418256
     46          1           0        0.376135    2.159826    0.517459
     47          8           0        0.678801    2.972830    0.004796
     48          8           0       -1.451375    3.576956    0.432067
     49          6           0       -0.371309    3.797380   -0.101212
     50          6           0       -0.071172    5.012600   -0.938711
     51          1           0        0.260111    4.703844   -1.935152
     52          1           0       -0.959743    5.638845   -1.019694
     53          1           0        0.745707    5.583221   -0.484839
     54          8           0        3.961536   -1.967551    0.357104
     55          6           0        5.088315   -1.931475   -0.444791
     56          8           0        5.310581   -2.918280   -1.128494
     57          6           0        5.878832   -0.722445   -0.399768
     58          1           0        6.787881   -0.732564   -0.989812
     59          6           0        5.496672    0.380680    0.301028
     60          6           0        6.324374    1.633192    0.293528
     61          1           0        6.604169    1.921871    1.313153
     62          1           0        7.235993    1.497685   -0.292349
     63          1           0        5.758062    2.468917   -0.134138
     64          6           0       -3.096000   -0.240192    2.412716
     65          6           0       -3.822446    0.862147    1.931616
     66          6           0       -3.605378   -1.526637    2.167924
     67          6           0       -5.014540    0.684880    1.231394
     68          6           0       -4.797414   -1.704547    1.467765
     69          6           0       -5.507758   -0.599484    0.996108
     70          1           0       -3.447785    1.865438    2.109102
     71          1           0       -3.060823   -2.392988    2.530362
     72          1           0       -5.559070    1.552125    0.868929
     73          1           0       -5.171890   -2.708701    1.290427
     74          1           0       -6.436539   -0.737849    0.450564
 ---------------------------------------------------------------------
 Rotational constants (GHZ):           0.1203904           0.0641271           0.0590376
 General basis read from cards:  (5D, 7F)
 ======================================================================================================
                                       Pseudopotential Parameters
 ======================================================================================================
  Center     Atomic      Valence      Angular      Power
  Number     Number     Electrons     Momentum     of R      Exponent        Coefficient   SO-Coeffient
 ======================================================================================================
    1         30           20
                                      F and up 
                                                     2        1.0000000        0.00000000    0.00000000
                                      S - F
                                                     2       34.1500000      399.98728200    0.00000000
                                                     2       14.5900000       85.48565500    0.00000000
                                      P - F
                                                     2       39.7800000      277.14896000    0.00000000
                                                     2       14.9500000       69.05220500    0.00000000
                                      D - F
                                                     2       43.8000000      -34.14934900    0.00000000
                                                     2       14.9800000       -3.29183100    0.00000000
    2          8
                                   No pseudopotential on this center.
    3          6
                                   No pseudopotential on this center.
    4          8
                                   No pseudopotential on this center.
    5          8
                                   No pseudopotential on this center.
    6          1
                                   No pseudopotential on this center.
    7          6
                                   No pseudopotential on this center.
    8          6
                                   No pseudopotential on this center.
    9          6
                                   No pseudopotential on this center.
   10          6
                                   No pseudopotential on this center.
   11          6
                                   No pseudopotential on this center.
   12          6
                                   No pseudopotential on this center.
   13          1
                                   No pseudopotential on this center.
   14          1
                                   No pseudopotential on this center.
   15          1
                                   No pseudopotential on this center.
   16          6
                                   No pseudopotential on this center.
   17          1
                                   No pseudopotential on this center.
   18          1
                                   No pseudopotential on this center.
   19          7
                                   No pseudopotential on this center.
   20          6
                                   No pseudopotential on this center.
   21          6
                                   No pseudopotential on this center.
   22          6
                                   No pseudopotential on this center.
   23          7
                                   No pseudopotential on this center.
   24          1
                                   No pseudopotential on this center.
   25          1
                                   No pseudopotential on this center.
   26          1
                                   No pseudopotential on this center.
   27          1
                                   No pseudopotential on this center.
   28          7
                                   No pseudopotential on this center.
   29          6
                                   No pseudopotential on this center.
   30          6
                                   No pseudopotential on this center.
   31          6
                                   No pseudopotential on this center.
   32          7
                                   No pseudopotential on this center.
   33          1
                                   No pseudopotential on this center.
   34          1
                                   No pseudopotential on this center.
   35          1
                                   No pseudopotential on this center.
   36          1
                                   No pseudopotential on this center.
   37          7
                                   No pseudopotential on this center.
   38          6
                                   No pseudopotential on this center.
   39          6
                                   No pseudopotential on this center.
   40          6
                                   No pseudopotential on this center.
   41          7
                                   No pseudopotential on this center.
   42          1
                                   No pseudopotential on this center.
   43          1
                                   No pseudopotential on this center.
   44          1
                                   No pseudopotential on this center.
   45          1
                                   No pseudopotential on this center.
   46          1
                                   No pseudopotential on this center.
   47          8
                                   No pseudopotential on this center.
   48          8
                                   No pseudopotential on this center.
   49          6
                                   No pseudopotential on this center.
   50          6
                                   No pseudopotential on this center.
   51          1
                                   No pseudopotential on this center.
   52          1
                                   No pseudopotential on this center.
   53          1
                                   No pseudopotential on this center.
   54          8
                                   No pseudopotential on this center.
   55          6
                                   No pseudopotential on this center.
   56          8
                                   No pseudopotential on this center.
   57          6
                                   No pseudopotential on this center.
   58          1
                                   No pseudopotential on this center.
   59          6
                                   No pseudopotential on this center.
   60          6
                                   No pseudopotential on this center.
   61          1
                                   No pseudopotential on this center.
   62          1
                                   No pseudopotential on this center.
   63          1
                                   No pseudopotential on this center.
   64          6
                                   No pseudopotential on this center.
   65          6
                                   No pseudopotential on this center.
   66          6
                                   No pseudopotential on this center.
   67          6
                                   No pseudopotential on this center.
   68          6
                                   No pseudopotential on this center.
   69          6
                                   No pseudopotential on this center.
   70          1
                                   No pseudopotential on this center.
   71          1
                                   No pseudopotential on this center.
   72          1
                                   No pseudopotential on this center.
   73          1
                                   No pseudopotential on this center.
   74          1
                                   No pseudopotential on this center.
 ======================================================================================================
 There are   731 symmetry adapted cartesian basis functions of A   symmetry.
 There are   686 symmetry adapted basis functions of A   symmetry.
   686 basis functions,  1365 primitive gaussians,   731 cartesian basis functions
   161 alpha electrons      161 beta electrons
       nuclear repulsion energy      6156.3323080461 Hartrees.
 NAtoms=   74 NActive=   74 NUniq=   74 SFac= 1.00D+00 NAtFMM=   60 NAOKFM=T Big=T
 Integral buffers will be    131072 words long.
 Raffenetti 2 integral format.
 Two-electron integral symmetry is turned on.
 Nuclear repulsion after empirical dispersion term =     6156.1346726531 Hartrees.
 ------------------------------------------------------------------------------
 Polarizable Continuum Model (PCM)
 =================================
 Model                : C-PCM.
 Atomic radii         : UFF (Universal Force Field).
 Polarization charges : Total charges.
 Charge compensation  : None.
 Solution method      : On-the-fly selection.
 Cavity type          : Scaled VdW (van der Waals Surface) (Alpha=1.100).
 Cavity algorithm     : GePol (No added spheres)
                        Default sphere list used, NSphG=   74.
                        Lebedev-Laikov grids with approx.  5.0 points / Ang**2.
                        Smoothing algorithm: York/Karplus (Gamma=1.0000).
                        Polarization charges: spherical gaussians, with
                                              point-specific exponents (IZeta= 3).
                        Self-potential: point-specific (ISelfS= 7).
                        Self-field    : sphere-specific E.n sum rule (ISelfD= 2).
 1st derivatives      : Analytical E(r).r(x)/FMM algorithm (CHGder, D1EAlg=3).
                        Cavity 1st derivative terms included.
 Solvent              : Water, Eps=  78.355300 Eps(inf)=   1.777849
 ------------------------------------------------------------------------------
 One-electron integrals computed using PRISM.
   1 Symmetry operations used in ECPInt.
 ECPInt:  NShTT=   29890 NPrTT=  185388 LenC2=   23971 LenP2D=   75828.
 LDataN:  DoStor=T MaxTD1= 5 Len=  102
 NBasis=   686 RedAO= T EigKep=  3.73D-04  NBF=   686
 NBsUse=   686 1.00D-06 EigRej= -1.00D+00 NBFU=   686
 ExpMin= 1.00D-02 ExpMax= 5.48D+03 ExpMxC= 8.25D+02 IAcc=3 IRadAn=         5 AccDes= 0.00D+00
 Harris functional with IExCor=  402 and IRadAn=       5 diagonalized for initial guess.
 HarFok:  IExCor=  402 AccDes= 0.00D+00 IRadAn=         5 IDoV= 1 UseB2=F ITyADJ=14
 ICtDFT=  3500011 ScaDFX=  1.000000  1.000000  1.000000  1.000000
 FoFCou: FMM=F IPFlag=           0 FMFlag=      100000 FMFlg1=        2001
         NFxFlg=           0 DoJE=T BraDBF=F KetDBF=T FulRan=T
         wScrn=  0.000000 ICntrl=       500 IOpCl=  0 I1Cent=   200000004 NGrid=           0
         NMat0=    1 NMatS0=      1 NMatT0=    0 NMatD0=    1 NMtDS0=    0 NMtDT0=    0
 Petite list used in FoFCou.
 Requested convergence on RMS density matrix=1.00D-08 within  32 cycles.
 Requested convergence on MAX density matrix=1.00D-06.
 Requested convergence on             energy=1.00D-06.
 No special actions if energy rises.
 Inv3:  Mode=1 IEnd=    70073667.
 Iteration    1 A*A^-1 deviation from unit magnitude is 1.31D-14 for   3806.
 Iteration    1 A*A^-1 deviation from orthogonality  is 6.55D-15 for   2454   1403.
 Iteration    1 A^-1*A deviation from unit magnitude is 1.29D-14 for   3806.
 Iteration    1 A^-1*A deviation from orthogonality  is 8.17D-15 for   4667   3948.
 Error on total polarization charges =  0.01055
 SCF Done:  E(RB3LYP) =  -2206.14686638     A.U. after   13 cycles
            NFock= 13  Conv=0.55D-08     -V/T= 2.0410
 QCSCF skips out because SCF is already converged.

 **********************************************************************

            Population analysis using the SCF Density.

 **********************************************************************

 Orbital symmetries:
       Occupied  (A) (A) (A) (A) (A) (A) (A) (A) (A) (A) (A) (A)
                 (A) (A) (A) (A) (A) (A) (A) (A) (A) (A) (A) (A)
                 (A) (A) (A) (A) (A) (A) (A) (A) (A) (A) (A) (A)
                 (A) (A) (A) (A) (A) (A) (A) (A) (A) (A) (A) (A)
                 (A) (A) (A) (A) (A) (A) (A) (A) (A) (A) (A) (A)
                 (A) (A) (A) (A) (A) (A) (A) (A) (A) (A) (A) (A)
                 (A) (A) (A) (A) (A) (A) (A) (A) (A) (A) (A) (A)
                 (A) (A) (A) (A) (A) (A) (A) (A) (A) (A) (A) (A)
                 (A) (A) (A) (A) (A) (A) (A) (A) (A) (A) (A) (A)
                 (A) (A) (A) (A) (A) (A) (A) (A) (A) (A) (A) (A)
                 (A) (A) (A) (A) (A) (A) (A) (A) (A) (A) (A) (A)
                 (A) (A) (A) (A) (A) (A) (A) (A) (A) (A) (A) (A)
                 (A) (A) (A) (A) (A) (A) (A) (A) (A) (A) (A) (A)
                 (A) (A) (A) (A) (A)
       Virtual   (A) (A) (A) (A) (A) (A) (A) (A) (A) (A) (A) (A)
                 (A) (A) (A) (A) (A) (A) (A) (A) (A) (A) (A) (A)
                 (A) (A) (A) (A) (A) (A) (A) (A) (A) (A) (A) (A)
                 (A) (A) (A) (A) (A) (A) (A) (A) (A) (A) (A) (A)
                 (A) (A) (A) (A) (A) (A) (A) (A) (A) (A) (A) (A)
                 (A) (A) (A) (A) (A) (A) (A) (A) (A) (A) (A) (A)
                 (A) (A) (A) (A) (A) (A) (A) (A) (A) (A) (A) (A)
                 (A) (A) (A) (A) (A) (A) (A) (A) (A) (A) (A) (A)
                 (A) (A) (A) (A) (A) (A) (A) (A) (A) (A) (A) (A)
                 (A) (A) (A) (A) (A) (A) (A) (A) (A) (A) (A) (A)
                 (A) (A) (A) (A) (A) (A) (A) (A) (A) (A) (A) (A)
                 (A) (A) (A) (A) (A) (A) (A) (A) (A) (A) (A) (A)
                 (A) (A) (A) (A) (A) (A) (A) (A) (A) (A) (A) (A)
                 (A) (A) (A) (A) (A) (A) (A) (A) (A) (A) (A) (A)
                 (A) (A) (A) (A) (A) (A) (A) (A) (A) (A) (A) (A)
                 (A) (A) (A) (A) (A) (A) (A) (A) (A) (A) (A) (A)
                 (A) (A) (A) (A) (A) (A) (A) (A) (A) (A) (A) (A)
                 (A) (A) (A) (A) (A) (A) (A) (A) (A) (A) (A) (A)
                 (A) (A) (A) (A) (A) (A) (A) (A) (A) (A) (A) (A)
                 (A) (A) (A) (A) (A) (A) (A) (A) (A) (A) (A) (A)
                 (A) (A) (A) (A) (A) (A) (A) (A) (A) (A) (A) (A)
                 (A) (A) (A) (A) (A) (A) (A) (A) (A) (A) (A) (A)
                 (A) (A) (A) (A) (A) (A) (A) (A) (A) (A) (A) (A)
                 (A) (A) (A) (A) (A) (A) (A) (A) (A) (A) (A) (A)
                 (A) (A) (A) (A) (A) (A) (A) (A) (A) (A) (A) (A)
                 (A) (A) (A) (A) (A) (A) (A) (A) (A) (A) (A) (A)
                 (A) (A) (A) (A) (A) (A) (A) (A) (A) (A) (A) (A)
                 (A) (A) (A) (A) (A) (A) (A) (A) (A) (A) (A) (A)
                 (A) (A) (A) (A) (A) (A) (A) (A) (A) (A) (A) (A)
                 (A) (A) (A) (A) (A) (A) (A) (A) (A) (A) (A) (A)
                 (A) (A) (A) (A) (A) (A) (A) (A) (A) (A) (A) (A)
                 (A) (A) (A) (A) (A) (A) (A) (A) (A) (A) (A) (A)
                 (A) (A) (A) (A) (A) (A) (A) (A) (A) (A) (A) (A)
                 (A) (A) (A) (A) (A) (A) (A) (A) (A) (A) (A) (A)
                 (A) (A) (A) (A) (A) (A) (A) (A) (A) (A) (A) (A)
                 (A) (A) (A) (A) (A) (A) (A) (A) (A) (A) (A) (A)
                 (A) (A) (A) (A) (A) (A) (A) (A) (A) (A) (A) (A)
                 (A) (A) (A) (A) (A) (A) (A) (A) (A) (A) (A) (A)
                 (A) (A) (A) (A) (A) (A) (A) (A) (A) (A) (A) (A)
                 (A) (A) (A) (A) (A) (A) (A) (A) (A) (A) (A) (A)
                 (A) (A) (A) (A) (A) (A) (A) (A) (A) (A) (A) (A)
                 (A) (A) (A) (A) (A) (A) (A) (A) (A) (A) (A) (A)
                 (A) (A) (A) (A) (A) (A) (A) (A) (A) (A) (A) (A)
                 (A) (A) (A) (A) (A) (A) (A) (A) (A)
 The electronic state is 1-A.
 Alpha  occ. eigenvalues --  -19.21430 -19.17724 -19.17718 -19.14503 -19.14004
 Alpha  occ. eigenvalues --  -19.13411 -19.10937 -14.40916 -14.40753 -14.40714
 Alpha  occ. eigenvalues --  -14.36754 -14.36249 -14.36010 -10.33671 -10.32212
 Alpha  occ. eigenvalues --  -10.32207 -10.26743 -10.26737 -10.26367 -10.26314
 Alpha  occ. eigenvalues --  -10.25826 -10.23100 -10.23056 -10.22688 -10.22584
 Alpha  occ. eigenvalues --  -10.21989 -10.21369 -10.21325 -10.20795 -10.20279
 Alpha  occ. eigenvalues --  -10.20017 -10.19767 -10.19282 -10.19225 -10.19118
 Alpha  occ. eigenvalues --  -10.18791 -10.18715 -10.18653 -10.18650 -10.18564
 Alpha  occ. eigenvalues --  -10.18563 -10.18477  -5.03280  -3.22276  -3.22138
 Alpha  occ. eigenvalues --   -3.22047  -1.12133  -1.09951  -1.09051  -1.04451
 Alpha  occ. eigenvalues --   -1.04098  -1.04032  -1.02833  -1.00981  -1.00623
 Alpha  occ. eigenvalues --   -0.96808  -0.90276  -0.89903  -0.89695  -0.87637
 Alpha  occ. eigenvalues --   -0.85827  -0.83677  -0.78572  -0.77155  -0.76815
 Alpha  occ. eigenvalues --   -0.76741  -0.76688  -0.75502  -0.75237  -0.74714
 Alpha  occ. eigenvalues --   -0.73029  -0.71259  -0.66036  -0.65154  -0.64269
 Alpha  occ. eigenvalues --   -0.63928  -0.63921  -0.62016  -0.61565  -0.61437
 Alpha  occ. eigenvalues --   -0.60845  -0.60659  -0.60412  -0.60200  -0.58711
 Alpha  occ. eigenvalues --   -0.58393  -0.58173  -0.57905  -0.54467  -0.53680
 Alpha  occ. eigenvalues --   -0.52136  -0.51479  -0.50871  -0.49958  -0.49304
 Alpha  occ. eigenvalues --   -0.48775  -0.48674  -0.48382  -0.47941  -0.47709
 Alpha  occ. eigenvalues --   -0.47432  -0.47156  -0.46941  -0.46602  -0.46424
 Alpha  occ. eigenvalues --   -0.46091  -0.46018  -0.45892  -0.45745  -0.45538
 Alpha  occ. eigenvalues --   -0.45453  -0.45296  -0.45067  -0.44957  -0.44792
 Alpha  occ. eigenvalues --   -0.44672  -0.44270  -0.44096  -0.43941  -0.43738
 Alpha  occ. eigenvalues --   -0.43247  -0.42991  -0.42737  -0.42253  -0.41921
 Alpha  occ. eigenvalues --   -0.41625  -0.40926  -0.40662  -0.40076  -0.39825
 Alpha  occ. eigenvalues --   -0.39355  -0.39179  -0.38665  -0.38145  -0.37568
 Alpha  occ. eigenvalues --   -0.36466  -0.35951  -0.34998  -0.34638  -0.34344
 Alpha  occ. eigenvalues --   -0.34014  -0.33496  -0.33318  -0.32859  -0.31821
 Alpha  occ. eigenvalues --   -0.31696  -0.31231  -0.30928  -0.30611  -0.29212
 Alpha  occ. eigenvalues --   -0.28459  -0.28219  -0.26698  -0.26424  -0.25905
 Alpha  occ. eigenvalues --   -0.25622  -0.25298  -0.24952  -0.24744  -0.24273
 Alpha  occ. eigenvalues --   -0.23201
 Alpha virt. eigenvalues --   -0.06548  -0.01352  -0.01177  -0.00792  -0.00534
 Alpha virt. eigenvalues --    0.00050   0.00108   0.00374   0.00500   0.00870
 Alpha virt. eigenvalues --    0.02911   0.03842   0.03991   0.04542   0.06824
 Alpha virt. eigenvalues --    0.07840   0.08009   0.08439   0.08885   0.09287
 Alpha virt. eigenvalues --    0.10201   0.10584   0.10921   0.11405   0.12140
 Alpha virt. eigenvalues --    0.12300   0.12455   0.12614   0.12830   0.13692
 Alpha virt. eigenvalues --    0.14475   0.14607   0.14736   0.14883   0.14930
 Alpha virt. eigenvalues --    0.15462   0.15570   0.16048   0.16225   0.16694
 Alpha virt. eigenvalues --    0.17216   0.17421   0.17720   0.18047   0.18237
 Alpha virt. eigenvalues --    0.18603   0.18728   0.18984   0.19484   0.19677
 Alpha virt. eigenvalues --    0.19980   0.20344   0.20636   0.21263   0.21438
 Alpha virt. eigenvalues --    0.21899   0.22212   0.22684   0.22848   0.23152
 Alpha virt. eigenvalues --    0.23959   0.24238   0.24490   0.25473   0.25863
 Alpha virt. eigenvalues --    0.26879   0.26986   0.27523   0.28261   0.28788
 Alpha virt. eigenvalues --    0.29604   0.30112   0.30426   0.31127   0.31764
 Alpha virt. eigenvalues --    0.32171   0.32471   0.32829   0.33442   0.33631
 Alpha virt. eigenvalues --    0.34197   0.35480   0.35692   0.36689   0.37066
 Alpha virt. eigenvalues --    0.37108   0.38278   0.38484   0.39653   0.39874
 Alpha virt. eigenvalues --    0.41513   0.42182   0.42736   0.43133   0.43372
 Alpha virt. eigenvalues --    0.44614   0.45162   0.45742   0.46479   0.46742
 Alpha virt. eigenvalues --    0.47669   0.47874   0.48864   0.50127   0.50317
 Alpha virt. eigenvalues --    0.51295   0.51526   0.52439   0.52607   0.53113
 Alpha virt. eigenvalues --    0.53470   0.53928   0.54413   0.54536   0.54936
 Alpha virt. eigenvalues --    0.55376   0.55798   0.55987   0.56183   0.56414
 Alpha virt. eigenvalues --    0.56834   0.56981   0.57418   0.57707   0.58004
 Alpha virt. eigenvalues --    0.58325   0.58534   0.59072   0.59117   0.59495
 Alpha virt. eigenvalues --    0.59786   0.60051   0.60264   0.60711   0.60880
 Alpha virt. eigenvalues --    0.61114   0.61283   0.61654   0.61954   0.62312
 Alpha virt. eigenvalues --    0.62626   0.62796   0.63653   0.63957   0.64111
 Alpha virt. eigenvalues --    0.64972   0.65078   0.65272   0.66193   0.66703
 Alpha virt. eigenvalues --    0.67445   0.68039   0.68467   0.69357   0.70290
 Alpha virt. eigenvalues --    0.70967   0.71905   0.72237   0.73739   0.74028
 Alpha virt. eigenvalues --    0.74440   0.74871   0.75323   0.75854   0.76028
 Alpha virt. eigenvalues --    0.76961   0.77516   0.77784   0.78413   0.78851
 Alpha virt. eigenvalues --    0.79352   0.79798   0.80205   0.80609   0.81037
 Alpha virt. eigenvalues --    0.81321   0.81667   0.82026   0.82448   0.83114
 Alpha virt. eigenvalues --    0.83429   0.83806   0.83945   0.84122   0.84410
 Alpha virt. eigenvalues --    0.84811   0.84994   0.85220   0.85579   0.85791
 Alpha virt. eigenvalues --    0.86169   0.86350   0.86816   0.86998   0.87560
 Alpha virt. eigenvalues --    0.88236   0.88505   0.89305   0.89765   0.90181
 Alpha virt. eigenvalues --    0.90257   0.90626   0.91283   0.91845   0.91883
 Alpha virt. eigenvalues --    0.92822   0.93302   0.93619   0.93836   0.94518
 Alpha virt. eigenvalues --    0.94721   0.95327   0.95892   0.96348   0.97126
 Alpha virt. eigenvalues --    0.97455   0.98192   0.98594   0.98850   0.99124
 Alpha virt. eigenvalues --    0.99378   0.99938   1.00060   1.00660   1.01213
 Alpha virt. eigenvalues --    1.01824   1.02605   1.03134   1.03508   1.04162
 Alpha virt. eigenvalues --    1.04923   1.05418   1.06033   1.06655   1.06901
 Alpha virt. eigenvalues --    1.08950   1.09638   1.09889   1.11211   1.11715
 Alpha virt. eigenvalues --    1.12225   1.13575   1.13887   1.14037   1.15223
 Alpha virt. eigenvalues --    1.15557   1.15858   1.16362   1.17711   1.17980
 Alpha virt. eigenvalues --    1.18340   1.19862   1.20567   1.20658   1.21415
 Alpha virt. eigenvalues --    1.22541   1.23042   1.23602   1.23851   1.24440
 Alpha virt. eigenvalues --    1.24751   1.25361   1.26234   1.27012   1.27423
 Alpha virt. eigenvalues --    1.28342   1.28716   1.29478   1.30022   1.30798
 Alpha virt. eigenvalues --    1.30864   1.32622   1.32738   1.33464   1.34120
 Alpha virt. eigenvalues --    1.34277   1.34869   1.35744   1.36174   1.36339
 Alpha virt. eigenvalues --    1.36632   1.37330   1.38232   1.38659   1.39239
 Alpha virt. eigenvalues --    1.39585   1.40220   1.40600   1.40883   1.41604
 Alpha virt. eigenvalues --    1.42102   1.42682   1.43204   1.43832   1.44500
 Alpha virt. eigenvalues --    1.45192   1.45780   1.45999   1.46577   1.47404
 Alpha virt. eigenvalues --    1.47559   1.48219   1.48225   1.48945   1.49499
 Alpha virt. eigenvalues --    1.50057   1.50643   1.50745   1.51396   1.52725
 Alpha virt. eigenvalues --    1.52868   1.52951   1.53434   1.53655   1.54908
 Alpha virt. eigenvalues --    1.55069   1.55685   1.57839   1.59569   1.60157
 Alpha virt. eigenvalues --    1.60977   1.61815   1.62485   1.63346   1.64170
 Alpha virt. eigenvalues --    1.65537   1.65633   1.67012   1.68413   1.68950
 Alpha virt. eigenvalues --    1.70157   1.71948   1.72960   1.73452   1.74586
 Alpha virt. eigenvalues --    1.75809   1.76368   1.76833   1.77480   1.78081
 Alpha virt. eigenvalues --    1.78858   1.79408   1.79974   1.80329   1.80646
 Alpha virt. eigenvalues --    1.81774   1.82613   1.83275   1.83734   1.83907
 Alpha virt. eigenvalues --    1.84882   1.85629   1.86008   1.87180   1.87324
 Alpha virt. eigenvalues --    1.87564   1.88983   1.89300   1.89927   1.90408
 Alpha virt. eigenvalues --    1.91323   1.91763   1.91989   1.92748   1.93082
 Alpha virt. eigenvalues --    1.94893   1.95097   1.95891   1.96228   1.96391
 Alpha virt. eigenvalues --    1.97144   1.97544   1.97794   1.98460   1.98978
 Alpha virt. eigenvalues --    1.99180   1.99994   2.00253   2.00829   2.01173
 Alpha virt. eigenvalues --    2.01497   2.01820   2.03216   2.03630   2.04320
 Alpha virt. eigenvalues --    2.05223   2.06276   2.06679   2.06827   2.07394
 Alpha virt. eigenvalues --    2.07968   2.08309   2.09191   2.09573   2.11272
 Alpha virt. eigenvalues --    2.12013   2.12940   2.13770   2.13894   2.15454
 Alpha virt. eigenvalues --    2.16693   2.17089   2.17931   2.18148   2.18617
 Alpha virt. eigenvalues --    2.19228   2.19509   2.19974   2.20067   2.20634
 Alpha virt. eigenvalues --    2.21466   2.21865   2.22093   2.22476   2.23112
 Alpha virt. eigenvalues --    2.23444   2.23620   2.23917   2.24714   2.25674
 Alpha virt. eigenvalues --    2.27374   2.27499   2.27892   2.28527   2.28909
 Alpha virt. eigenvalues --    2.29719   2.30675   2.31009   2.31732   2.31979
 Alpha virt. eigenvalues --    2.32774   2.32992   2.33174   2.33677   2.34430
 Alpha virt. eigenvalues --    2.34555   2.35984   2.36568   2.37196   2.37553
 Alpha virt. eigenvalues --    2.38052   2.38468   2.39036   2.39808   2.40344
 Alpha virt. eigenvalues --    2.40892   2.45335   2.45450   2.50214   2.50566
 Alpha virt. eigenvalues --    2.52746   2.53933   2.55620   2.55802   2.56047
 Alpha virt. eigenvalues --    2.56314   2.56780   2.58485   2.59027   2.59438
 Alpha virt. eigenvalues --    2.61196   2.62061   2.62154   2.62798   2.64063
 Alpha virt. eigenvalues --    2.65582   2.65691   2.66557   2.67771   2.68237
 Alpha virt. eigenvalues --    2.68420   2.68632   2.69272   2.70180   2.70404
 Alpha virt. eigenvalues --    2.71970   2.72713   2.73435   2.74297   2.74549
 Alpha virt. eigenvalues --    2.74737   2.75022   2.76079   2.76957   2.77740
 Alpha virt. eigenvalues --    2.77916   2.79488   2.79947   2.84524   2.86103
 Alpha virt. eigenvalues --    2.87489   2.88240   2.89956   2.90899   2.93939
 Alpha virt. eigenvalues --    2.95374   2.96037   2.96648   2.97035   2.98263
 Alpha virt. eigenvalues --    2.98946   2.99637   3.00523   3.01488   3.02901
 Alpha virt. eigenvalues --    3.04177   3.04588   3.04646   3.05528   3.07606
 Alpha virt. eigenvalues --    3.09642   3.12773   3.17386   3.19871   3.28704
 Alpha virt. eigenvalues --    3.31678   3.34486   3.41256   3.41304   3.49040
 Alpha virt. eigenvalues --    4.10919  69.08878  69.11061  69.11470  88.54151
          Condensed to atoms (all electrons):
 Mulliken charges:
               1
     1  Zn   0.753321
     2  O   -0.821942
     3  C    0.711048
     4  O   -0.541159
     5  O   -0.542593
     6  H    0.442544
     7  C    0.364501
     8  C   -0.223541
     9  C   -0.188335
    10  C    0.302281
    11  C   -0.209699
    12  C    0.082909
    13  H    0.182743
    14  H    0.158832
    15  H    0.165848
    16  C   -0.429880
    17  H    0.185811
    18  H    0.173763
    19  N   -0.447505
    20  C    0.217910
    21  C   -0.018432
    22  C   -0.004699
    23  N   -0.528977
    24  H    0.214528
    25  H    0.391736
    26  H    0.202904
    27  H    0.188485
    28  N   -0.443600
    29  C    0.227151
    30  C   -0.001427
    31  C   -0.005934
    32  N   -0.525004
    33  H    0.221416
    34  H    0.391936
    35  H    0.201932
    36  H    0.193063
    37  N   -0.444249
    38  C    0.235672
    39  C   -0.028114
    40  C   -0.021080
    41  N   -0.518659
    42  H    0.226213
    43  H    0.388959
    44  H    0.207776
    45  H    0.196758
    46  H    0.491429
    47  O   -0.617377
    48  O   -0.481054
    49  C    0.557498
    50  C   -0.526958
    51  H    0.194167
    52  H    0.183623
    53  H    0.196484
    54  O   -0.494217
    55  C    0.550146
    56  O   -0.499471
    57  C   -0.312116
    58  H    0.166659
    59  C    0.199886
    60  C   -0.543590
    61  H    0.188867
    62  H    0.181887
    63  H    0.189953
    64  C    0.160275
    65  C   -0.204607
    66  C   -0.173242
    67  C   -0.161938
    68  C   -0.130945
    69  C   -0.142936
    70  H    0.148473
    71  H    0.146374
    72  H    0.152974
    73  H    0.146618
    74  H    0.147928
 Sum of Mulliken charges =   1.00000
 Mulliken charges with hydrogens summed into heavy atoms:
               1
     1  Zn   0.753321
     2  O   -0.379398
     3  C    0.711048
     4  O   -0.541159
     5  O   -0.542593
     7  C    0.364501
     8  C   -0.040798
     9  C   -0.029503
    10  C    0.302281
    11  C   -0.043851
    12  C    0.082909
    16  C   -0.070306
    19  N   -0.447505
    20  C    0.432438
    21  C    0.170053
    22  C    0.198205
    23  N   -0.137241
    28  N   -0.443600
    29  C    0.448567
    30  C    0.191636
    31  C    0.195998
    32  N   -0.133069
    37  N   -0.444249
    38  C    0.461885
    39  C    0.168645
    40  C    0.186696
    41  N   -0.129700
    47  O   -0.125947
    48  O   -0.481054
    49  C    0.557498
    50  C    0.047315
    54  O   -0.494217
    55  C    0.550146
    56  O   -0.499471
    57  C   -0.145457
    59  C    0.199886
    60  C    0.017117
    64  C    0.160275
    65  C   -0.056133
    66  C   -0.026868
    67  C   -0.008965
    68  C    0.015673
    69  C    0.004992
 Electronic spatial extent (au):  <R**2>=          20230.6840
 Charge=              1.0000 electrons
 Dipole moment (field-independent basis, Debye):
    X=             -7.1638    Y=              2.8579    Z=            -14.5879  Tot=             16.5014
 Quadrupole moment (field-independent basis, Debye-Ang):
   XX=           -185.2755   YY=           -197.2506   ZZ=           -205.9089
   XY=             42.4316   XZ=             25.1341   YZ=             -5.6568
 Traceless Quadrupole moment (field-independent basis, Debye-Ang):
   XX=             10.8695   YY=             -1.1056   ZZ=             -9.7639
   XY=             42.4316   XZ=             25.1341   YZ=             -5.6568
 Octapole moment (field-independent basis, Debye-Ang**2):
  XXX=            -99.1836  YYY=             15.2866  ZZZ=           -181.9637  XYY=           -190.9060
  XXY=             75.3089  XXZ=           -134.6779  XZZ=            -71.3743  YZZ=             32.4468
  YYZ=           -142.0264  XYZ=             -2.6309
 Hexadecapole moment (field-independent basis, Debye-Ang**3):
 XXXX=         -14147.4661 YYYY=          -5286.9614 ZZZZ=          -4202.7780 XXXY=           1054.0760
 XXXZ=            580.5512 YYYX=            609.1569 YYYZ=           -122.4356 ZZZX=            241.5551
[...]
 0.00000001,-0.00000040,-0.00000076,-0.00000276,-0.00000163,-0.00000659
 ,0.00000390,0.00000824,0.00000347,-0.00000862,-0.00000221,0.00000306,0
 .00000549,-0.00000107,-0.00000105,-0.00000016,0.00000034,-0.00000605,0
 .00000327,0.00000436,0.00000021,-0.00000001,-0.00000006,-0.00000028,-0
 .00000112,-0.00000095,-0.00000055,0.00000055,-0.00000030,0.00000167,0.
 00000006,-0.00000020,0.00001636,0.00003299,-0.00001577,-0.00000211,-0.
 00002606,0.00001181,-0.00000289,-0.00001418,-0.00000729,-0.00000750,0.
 00001663,-0.00000678,0.00000083,-0.00000047,0.00000181,0.00000088,0.00
 000098,0.00000005,-0.00000006,-0.00000101,0.00000070,-0.00000014,-0.00
 000048,-0.00000031,-0.00000823,0.00000457,0.00000578,0.00000349,-0.000
 01060,-0.00000519,-0.00000236,0.00000829,0.00000423,-0.00000161,0.0000
 0640,0.00000259,-0.00000038,0.00000011,0.00000038,0.00000955,-0.000001
 22,-0.00000658,-0.00000062,0.00000009,0.00000054,0.00000006,-0.0000002
 6,0.00000011,-0.00000055,-0.00000022,0.00000032,-0.00000008,-0.0000001
 5,-0.00000018,-0.00514821,-0.00181881,0.00439509,-0.00779747,0.0134064
 7,0.00017659,-0.00008231,-0.00030387,-0.00070343,-0.03647804,0.0365326
 0,-0.04993400,-0.00361383,-0.00252147,0.00487508,0.00641052,-0.0085743
 0,0.00458260,0.00221737,0.00041937,-0.00271697,0.00052878,0.00023783,-
 0.00087603,0.04220872,-0.03839300,0.04241093,-0.00011900,-0.00021656,-
 0.00016229,-0.00006875,-0.00003245,0.00010998,0.00037547,-0.00011221,-
 0.00032482,-0.00012873,0.00012885,0.00019764,-0.00024070,-0.00000984,0
 .00008855,0.00002859,0.00004782,-0.00004440,0.00007305,0.00000725,-0.0
 0005325,-0.00002486,0.00000254,0.00001354,-0.00002641,-0.00000184,0.00
 001214,0.00001329,-0.00000250,-0.00000805,0.00000659,-0.00000825,-0.00
 000589,-0.00001433,-0.00000107,0.00000915,0.00000364,-0.00000390,-0.00
 000098,0.00000158,0.00000100,-0.00000007,-0.00000241,-0.00000095,0.000
 00141,0.00007553,-0.00133970,-0.00017300,0.00002854,0.00005409,0.00001
 949,-0.00045413,-0.00010058,-0.00013791,0.00000881,0.00004119,-0.00000
 173,-0.00000849,-0.00000496,0.00001493,0.00001348,0.00000374,-0.000013
 10,-0.00000061,0.00000138,0.00000052,-0.00000382,0.00000848,-0.0000152
 5,0.00000083,0.00000124,0.00000004,-0.00000158,-0.00000167,-0.00000033
 ,-0.00000011,0.00000080,-0.00000085,0.00000336,0.00000609,-0.00001333,
 0.00012859,0.00008285,-0.00004877,-0.00011664,-0.00011686,0.00026005,-
 0.00004933,-0.00021835,-0.00023289,0.00014102,0.00026834,-0.00025351,0
 .00021834,-0.00010502,0.00013549,0.00001022,-0.00000278,0.00000054,0.0
 0003920,0.00003912,0.00005088,-0.00003049,0.00001748,0.00002478,0.0000
 0461,0.00000030,0.00000336,0.00002559,0.00002554,0.00000327,-0.0000115
 3,-0.00000252,0.00000704,0.00000598,-0.00000993,-0.00000012,0.00000713
 ,0.00000562,-0.00000372,0.00000459,0.00000290,-0.00000217,-0.00001281,
 0.00000198,0.00000576,-0.00000131,0.00000085,-0.00000088,0.00000035,-0
 .00000012,-0.00000161,0.00000088,-0.00000010,-0.00000148,0.00002137,0.
 00004027,-0.00002501,-0.00000775,-0.00002745,0.00001853,-0.00000876,-0
 .00001667,0.00001438,0.00000226,0.00000901,-0.00000774,-0.00000091,-0.
 00000134,0.00000183,-0.00000039,-0.00000089,0.00000099,0.00000022,-0.0
 0000069,0.00000059,-0.00000022,-0.00000062,0.00000052,-0.00001015,0.00
 000692,0.00000926,0.00000188,-0.00001482,-0.00000745,-0.00000210,0.000
 01160,0.00000645,-0.00000210,0.00000979,0.00000426,-0.00000040,0.00000
 020,0.00000049,0.00001310,-0.00000256,-0.00000935,-0.00000092,0.000000
 17,0.00000078,0.00000016,-0.00000023,0.00000019,-0.00000067,-0.0000002
 8,0.00000038,-0.00000014,-0.00000018,-0.00000029,-0.00248919,0.0014493
 1,-0.00518719,-0.00090179,0.00056919,-0.00013580,-0.00464083,-0.026435
 60,-0.00818223,-0.00030014,0.00319099,-0.00351153,-0.08115991,-0.07572
 535,-0.03641780,0.00943790,0.01705305,0.00629283,-0.00012575,-0.000202
 99,0.00055648,0.00015510,-0.00004482,0.00224351,0.00043457,0.00094352,
 0.00021415,0.07977587,-0.00002795,-0.00009598,-0.00013294,-0.00008369,
 -0.00004669,0.00008356,0.00025577,-0.00000786,-0.00014118,-0.00013391,
 0.00002804,0.00010385,-0.00022335,-0.00003544,0.00004168,0.00006236,0.
 00005995,-0.00004851,0.00007701,0.00000149,-0.00005882,-0.00002110,0.0
 0000450,0.00001223,-0.00002613,-0.00000143,0.00001163,0.00001398,-0.00
 000418,-0.00000802,0.00000703,-0.00000791,-0.00000605,-0.00001541,-0.0
 0000100,0.00000973,0.00000431,-0.00000588,-0.00000148,0.00000184,0.000
 00098,0.00000030,-0.00000248,-0.00000105,0.00000116,0.00017278,-0.0000
 3676,0.00013347,-0.00005657,0.00000867,-0.00002812,-0.00007512,-0.0000
 1281,-0.00000720,-0.00000190,0.00000688,0.00002154,-0.00001342,-0.0000
 0405,0.00000869,0.00003469,0.00002575,0.00000003,-0.00001286,0.0000107
 4,-0.00000356,-0.00001881,-0.00001803,0.00002563,-0.00000052,-0.000002
 31,0.00000182,-0.00000391,0.00000143,-0.00000357,0.,-0.00000088,0.0000
 0187,0.00004831,0.00001620,-0.00011506,0.00008201,-0.00008763,0.000046
 97,-0.00013436,-0.00023939,0.00014334,-0.00002073,0.00017698,0.0000053
 7,-0.00021362,0.00000862,0.00005654,0.00026161,0.00009317,-0.00027427,
 -0.00000075,-0.00000502,0.00001015,0.00000659,0.00002060,0.00003577,0.
 00002612,-0.00001003,-0.00001592,0.00001709,-0.00001552,-0.00000252,-0
 .00000137,0.00001025,0.00001161,0.00000160,-0.00001132,-0.00000080,0.0
 0000462,0.00000424,-0.00000020,0.00000008,0.00000157,-0.00000021,-0.00
 000707,0.00000449,0.00000526,-0.00000211,0.00000111,0.00000069,-0.0000
 0086,-0.00000126,-0.00000157,-0.00000072,0.00000073,-0.00000084,0.0000
 0209,0.00000001,-0.00000129,0.00002877,0.00005117,-0.00002826,-0.00001
 396,-0.00003487,0.00002117,-0.00002414,-0.00003171,0.00002021,0.000015
 22,0.00001833,-0.00001395,-0.00000281,-0.00000166,0.00000422,0.0000004
 3,-0.00000054,0.00000115,0.00000046,-0.00000109,0.00000064,-0.00000023
 ,-0.00000154,0.00000065,-0.00001137,0.00000671,0.00000896,0.00000454,-
 0.00001632,-0.00000794,-0.00000328,0.00001272,0.00000663,-0.00000230,0
 .00001004,0.00000403,-0.00000054,0.00000016,0.00000056,0.00001422,-0.0
 0000212,-0.00001011,-0.00000093,0.00000016,0.00000081,0.00000011,-0.00
 000035,0.00000019,-0.00000081,-0.00000033,0.00000046,-0.00000019,-0.00
 000024,-0.00000032,0.00048438,0.00177181,-0.00068291,0.00049565,0.0003
 2416,0.00041499,0.00070853,0.00146558,0.00001858,0.00434877,-0.0019859
 2,0.00097433,-0.07598641,-0.28625592,-0.08072050,-0.01023737,-0.018321
 75,-0.00879067,-0.00022358,-0.00006794,0.00005455,-0.00045627,0.000669
 14,0.00042149,-0.00051917,-0.00106659,-0.00050942,0.08162232,0.3025627
 6,0.00008384,0.00008956,-0.00006191,-0.00006976,-0.00005086,0.00007946
 ,0.00034501,-0.00004120,-0.00019672,-0.00003072,0.00010125,0.00004505,
 -0.00020341,-0.00002160,0.00005470,-0.00000258,0.00005642,-0.00003664,
 0.00005538,-0.00000282,-0.00004399,-0.00001899,0.00000372,0.00001253,-
 0.00002335,-0.00000144,0.00001161,0.00001187,-0.00000235,-0.00000537,0
 .00000559,-0.00000699,-0.00000489,-0.00001290,-0.00000085,0.00000769,0
 .00000262,-0.00000445,-0.00000122,0.00000138,0.00000084,-0.00000009,-0
 .00000240,-0.00000089,0.00000098,0.00007395,-0.00076467,0.00008484,-0.
 00001343,0.00005359,-0.00001703,-0.00016453,-0.00002047,-0.00018629,-0
 .00000217,-0.00001885,0.00002222,0.00000890,0.00001060,-0.00001773,-0.
 00002113,-0.00001590,-0.00000600,0.00000104,0.00000065,0.00000161,0.00
 000291,-0.00001240,0.00001648,-0.00000078,-0.00000104,-0.00000049,0.00
 000129,0.00000118,-0.00000137,-0.00000014,-0.00000160,0.00000056,0.000
 00676,-0.00000331,0.00000919,-0.00018585,-0.00001442,0.00003629,0.0001
 3083,0.00015927,-0.00017834,-0.00003202,-0.00000836,0.00006917,0.00011
 133,-0.00012259,0.00020866,-0.00015327,-0.00000498,-0.00017644,-0.0000
 1735,-0.00000584,0.00002047,-0.00001639,-0.00002292,-0.00004318,0.0000
 0052,0.00000498,-0.00000848,-0.00000652,-0.00000791,-0.00000042,-0.000
 01921,-0.00001021,0.00001614,0.00001212,-0.00001258,-0.00000679,0.0000
 0296,0.00001413,-0.00000149,-0.00000559,-0.00000276,0.00000319,-0.0000
 1184,0.00000254,0.00000715,0.00000621,-0.00000189,-0.00000260,-0.00000
 026,-0.00000241,-0.00000146,-0.00000111,0.00000102,0.00000006,0.000002
 10,0.00000076,-0.00000137,0.00002414,0.00004797,-0.00002243,-0.0000015
 3,-0.00003632,0.00001758,0.00000844,-0.00001399,-0.00000120,-0.0000107
 8,0.00001911,-0.00000646,0.00000120,-0.00000145,0.00000255,0.00000044,
 -0.00000021,0.00000020,0.00000030,-0.00000115,0.00000072,0.00000010,-0
 .00000045,0.00000010,-0.00000995,0.00000510,0.00000683,0.00000498,-0.0
 0001342,-0.00000611,-0.00000327,0.00001045,0.00000505,-0.00000197,0.00
 000795,0.00000304,-0.00000049,0.00000011,0.00000048,0.00001179,-0.0000
 0130,-0.00000833,-0.00000075,0.00000013,0.00000064,0.00000006,-0.00000
 036,0.00000015,-0.00000070,-0.00000028,0.00000041,-0.00000017,-0.00000
 023,-0.00000024,-0.00551878,-0.00010013,0.00464603,-0.00020830,0.00046
 285,-0.00052638,-0.00371670,-0.01490801,-0.00128033,-0.00323178,0.0004
 1334,0.00527992,-0.03672912,-0.08095262,-0.06963997,0.00219830,0.00604
 605,0.00477497,0.00053517,0.00006336,-0.00088603,0.00209665,0.00081985
 ,-0.00286349,-0.00000948,0.00031719,0.00035195,0.04271208,0.08822503,0
 .06318342,0.00002654,0.00002867,-0.00017302,-0.00008071,-0.00007498,0.
 00009588,0.00029461,0.00009817,-0.00015905,-0.00017584,-0.00000794,0.0
 0010355,-0.00028763,-0.00005852,0.00003226,0.00007306,0.00006676,-0.00
 005020,0.00008821,-0.00000231,-0.00007052,-0.00002326,0.00000800,0.000
 01440,-0.00003156,-0.00000251,0.00001643,0.00001601,-0.00000580,-0.000
 00848,0.00000885,-0.00001048,-0.00000733,-0.00001782,-0.00000035,0.000
 01193,0.00000526,-0.00000760,-0.00000168,0.00000147,0.00000101,0.00000
 005,-0.00000321,-0.00000124,0.00000119,-0.00031682,-0.00007809,0.00048
 073,0.00002026,-0.00003713,-0.00000806,-0.00002638,-0.00000993,-0.0000
 1112,0.00003179,0.00001020,-0.00000021,0.00001746,0.00000824,-0.000023
 35,0.00002838,0.00001853,0.00008412,0.00000989,-0.00000273,-0.00000067
 ,0.00000894,-0.00000945,0.00000354,-0.00000097,0.00000088,-0.00000416,
 0.00000239,-0.00000223,-0.00000164,0.00000143,0.00000119,-0.00000065,-
 0.00016602,-0.00005510,-0.00015085,-0.00001621,0.00003809,0.00003449,-
 0.00000528,-0.00000529,-0.00005067,-0.00000313,-0.00002623,0.00002979,
 -0.00001929,-0.00001535,-0.00000260,0.00002444,0.00001078,0.00002289,0
 .00000430,-0.00000072,-0.00000079,-0.00000608,-0.00000461,-0.00000789,
 0.00000113,0.00000149,0.00000206,0.00002049,-0.00001946,-0.00000212,-0
 .00001210,-0.00000089,0.00002143,0.00000926,-0.00001449,-0.00000442,0.
 00000408,0.00001151,0.00000050,-0.00000404,-0.00000054,0.00000225,-0.0
 0001156,0.00000342,0.00000738,0.00000235,-0.00000048,-0.00000117,-0.00
 000087,-0.00000211,-0.00000221,-0.00000130,0.00000110,-0.00000059,0.00
 000164,-0.00000023,-0.00000197,0.00003393,0.00006275,-0.00003571,-0.00
 001315,-0.00004287,0.00002670,-0.00002309,-0.00003360,0.00002645,0.000
 01146,0.00001845,-0.00001612,-0.00000266,-0.00000180,0.00000450,-0.000
 00025,-0.00000121,0.00000176,0.00000046,-0.00000139,0.00000078,-0.0000
 0030,-0.00000151,0.00000094,-0.00001399,0.00000776,0.00001057,0.000006
 55,-0.00001916,-0.00000959,-0.00000431,0.00001512,0.00000783,-0.000002
 73,0.00001163,0.00000464,-0.00000067,0.00000018,0.00000069,0.00001675,
 -0.00000224,-0.00001208,-0.00000111,0.00000020,0.00000097,0.00000014,-
 0.00000045,0.00000022,-0.00000099,-0.00000040,0.00000056,-0.00000023,-
 0.00000033,-0.00000035,0.00034940,0.00030177,0.00065448,0.00262937,-0.
 00142511,-0.00274928,0.00132848,0.00367618,-0.00258274,-0.00493973,0.0
 0119100,-0.00362368,-0.01111837,-0.00402518,-0.00788170,-0.26781063,-0
 .01875952,-0.12829464,-0.00029861,0.00010230,-0.00033076,-0.00057034,-
 0.00024479,-0.00052855,-0.00020409,-0.00047656,0.00196117,-0.00009352,
 -0.00022126,0.00199924,0.28123004,-0.00001739,-0.00003680,-0.00000085,
 -0.00004383,0.00003487,0.00000670,0.00003002,-0.00013266,-0.00009516,0
 .00005893,0.00012031,0.00003505,-0.00002282,0.00001436,0.00002139,0.00
 005613,0.00000660,-0.00004916,0.00000205,-0.00000395,-0.00000387,-0.00
 000091,-0.00000036,0.00000054,-0.00000337,-0.00000033,0.00000153,0.000
 00045,0.00000019,0.00000024,0.00000130,-0.00000080,-0.00000092,-0.0000
 0101,0.00000038,0.00000072,-0.00000044,0.00000086,0.00000011,0.0000001
 2,0.00000011,0.00000009,-0.00000024,-0.00000009,0.00000010,-0.00016381
 ,0.00019379,0.00013492,-0.00003714,0.00000983,-0.00002827,0.00007900,0
 .00003531,0.00004273,0.00001021,0.00000686,-0.00000526,0.00000134,-0.0
 0000091,-0.00000100,0.00002030,0.00000358,0.00002719,0.00000474,0.0000
 0146,-0.00000244,-0.00000083,-0.00000087,-0.00000155,-0.00000005,0.000
 00009,-0.00000082,-0.00000015,-0.00000095,-0.00000047,0.00000101,0.000
 00147,-0.00000124,-0.00005085,-0.00002424,-0.00004592,0.00000687,-0.00
 001350,-0.00000266,0.00000161,0.00000059,-0.00000081,0.00000067,0.0000
 0765,-0.00000158,0.00001415,-0.00000097,0.00000948,-0.00001976,0.00001
 007,-0.00001223,-0.00000376,0.00000094,0.00000216,0.00000193,0.0000025
 2,0.00000190,0.00000089,-0.00000131,-0.00000225,-0.00001461,0.00000843
 ,0.00000048,0.00000210,0.00000234,0.00000027,-0.00000109,0.00000002,0.
 00000084,0.00000038,-0.00000110,-0.00000005,0.00000067,0.00000046,-0.0
 0000029,0.00000040,0.00000037,-0.00000026,-0.00000078,0.00000010,0.000
 00036,-0.00000007,0.00000008,-0.00000007,0.00000004,-0.00000002,-0.000
 00009,0.00000038,-0.00000013,-0.00000050,0.00000378,0.00000645,-0.0000
 0411,-0.00000758,-0.00000095,0.00000317,-0.00002189,-0.00001087,0.0000
 1954,0.00001800,-0.00000051,-0.00000575,-0.00000285,-0.00000055,0.0000
 0136,-0.00000021,-0.00000058,0.00000074,0.00000016,-0.00000011,0.,-0.0
 0000019,-0.00000076,0.00000062,-0.00000028,0.00000016,0.00000033,-0.00
 000023,-0.00000093,-0.00000022,-0.00000007,0.00000064,0.00000032,-0.00
 000015,0.00000074,0.00000029,-0.00000001,0.00000002,0.00000004,0.00000
 095,-0.00000007,-0.00000071,-0.00000004,0.,0.00000004,0.,-0.00000001,0
 .00000001,-0.00000004,0.,0.00000003,-0.00000002,-0.00000002,-0.0000000
 2,0.00014893,-0.00121221,0.00004081,-0.00029910,-0.00476954,-0.0020502
 0,0.00264404,-0.00407684,-0.00031015,-0.02644061,0.00224129,-0.0142242
 0,0.02372277,0.00673707,0.01342423,-0.01879704,-0.06178736,-0.01422021
 ,-0.00137404,-0.00003391,-0.00076888,0.00117461,0.00022978,0.00074909,
 0.00018867,0.00115658,0.00090345,-0.00088915,0.00106215,0.00027944,0.0
 2001880,0.06021572,0.00002995,-0.00001426,-0.00004161,-0.00008223,0.00
 000570,0.00003619,0.00011197,0.00002982,0.00014327,-0.00008310,-0.0000
 4503,-0.00003947,-0.00001588,-0.00001895,-0.00001333,0.00007362,0.0000
 2208,-0.00006983,0.00003552,0.00000481,-0.00000830,-0.00000887,0.00000
 049,0.00000359,-0.00000625,0.00000052,-0.00000048,0.00000650,-0.000001
 34,-0.00000488,0.00000023,-0.00000086,-0.00000201,-0.00000569,-0.00000
 187,0.00000272,0.00000239,-0.00000360,0.00000008,0.00000124,0.00000099
 ,0.00000107,-0.00000043,-0.00000030,0.00000064,0.00065068,0.00015880,-
 0.00072172,-0.00013728,0.00014986,-0.00002040,-0.00001676,-0.00005921,
 0.00000825,-0.00002731,-0.00000975,0.00003792,-0.00001329,-0.00000257,
 0.00000583,-0.00005298,-0.00003471,-0.00001465,-0.00001972,0.00001199,
 0.00000363,-0.00001987,-0.00002053,0.00003339,-0.00000077,-0.00000288,
 0.00000403,-0.00000436,0.00000340,-0.00000260,-0.00000100,-0.00000452,
 0.00000349,0.00012661,0.00005638,0.00002731,-0.00000327,0.00001455,0.0
 0002358,-0.00003701,-0.00000439,-0.00000558,0.00000728,-0.00001068,0.0
 0000580,-0.00001845,0.00000531,-0.00000882,0.00002541,0.00000536,0.000
 00982,-0.00000450,0.00000098,-0.00000050,-0.00000283,-0.00000044,-0.00
 000129,0.00000110,0.00000032,0.00000076,0.00000769,-0.00000787,-0.0000
 0047,-0.00000773,0.00000267,0.00000720,0.00000396,-0.00000858,-0.00000
 270,0.00000274,0.00000598,-0.00000159,-0.00000149,-0.00000037,0.000000
 59,-0.00000675,0.00000331,0.00000446,0.00000080,-0.00000017,-0.0000003
 0,-0.00000004,-0.00000111,-0.00000068,-0.00000043,0.00000047,0.0000000
 3,0.00000197,0.00000014,-0.00000074,0.00001610,0.00002661,-0.00001218,
 -0.00001233,-0.00001611,0.00000963,-0.00002744,-0.00002542,0.00002045,
 0.00002177,0.00001119,-0.00000999,-0.00000375,-0.00000140,0.00000347,0
 .00000059,-0.00000026,0.00000062,0.00000032,-0.00000057,0.00000030,-0.
 00000033,-0.00000152,0.00000057,-0.00000486,0.00000293,0.00000315,0.00
 000286,-0.00000601,-0.00000310,-0.00000153,0.00000463,0.00000234,-0.00
 000090,0.00000321,0.00000125,-0.00000029,0.00000005,0.00000018,0.00000
 521,-0.00000058,-0.00000330,-0.00000035,0.00000007,0.00000025,0.,-0.00
 000018,0.00000008,-0.00000033,-0.00000013,0.00000020,0.00000002,-0.000
 00009,-0.00000012,0.00047795,-0.00015018,-0.00052706,-0.00250772,-0.00
 267959,0.00567824,-0.00250064,0.00040756,0.00583151,-0.00805784,0.0005
 8107,-0.00203481,-0.00404872,-0.00114994,-0.00002504,-0.12813437,-0.01
 446973,-0.10701873,-0.00058941,-0.00000269,0.00001506,-0.00031577,-0.0
 0010573,0.00003902,0.00207760,0.00054639,-0.00279429,0.00194854,0.0006
 6470,-0.00274083,0.14114427,0.01613180,0.10416144\\0.00000118,0.000000
 71,0.00000096,0.00000044,0.00000353,0.00000282,-0.00000216,0.00000472,
 -0.00000213,-0.00000123,0.00000578,0.00000267,-0.00000170,0.00000516,0
 .00000006,0.00000102,0.00000433,-0.00000401,-0.00000124,0.00000185,0.0
 0000101,-0.00000226,0.00000042,0.00000309,0.00000081,0.00000126,-0.000
 00164,-0.00000185,-0.00000240,0.00000366,0.00000099,-0.00000176,-0.000
 00126,0.00000019,-0.00000362,0.00000137,-0.00000349,0.00000119,0.00000
 504,0.00000163,0.00000264,-0.00000363,0.00000253,-0.00000260,-0.000003
 01,-0.00000198,0.00000852,0.00000027,-0.00000363,0.00001116,0.00000194
 ,-0.00000033,0.00000978,-0.00000371,0.00000059,-0.00000142,-0.00000281
 ,0.00000303,-0.00000274,-0.00000333,0.00000230,0.00000227,-0.00000301,
 0.00000395,-0.00000038,-0.00000553,0.00000433,-0.00000356,-0.00000455,
 0.00000289,-0.00000596,-0.00000265,0.00000516,-0.00000545,-0.00000634,
 0.00000427,0.,-0.00000702,0.00000084,0.00000309,-0.00000329,-0.0000030
 1,0.00000030,0.00000498,-0.00000270,-0.00000008,0.00000356,-0.00000442
 ,0.00000216,0.00000666,-0.00000537,0.00000266,0.00000808,-0.00000425,0
 .00000162,0.00000606,-0.00000145,-0.00000067,0.00000243,-0.00000444,0.
 00000106,0.00000698,-0.00000692,0.00000340,0.00001014,-0.00000510,0.00
 000315,0.00000711,-0.00000075,-0.00000470,0.00000128,-0.00000151,-0.00
 000542,0.00000473,0.00000081,-0.00000536,0.00000073,0.00000028,-0.0000
 0841,0.00000246,-0.00000169,-0.00000784,0.00000437,-0.00000316,-0.0000
 0423,0.00000681,-0.00000186,-0.00000937,0.00000721,0.00000122,-0.00001
 031,0.00000195,0.00000216,-0.00000529,-0.00000158,0.00000476,-0.000003
 53,-0.00000892,0.00000257,0.00000152,-0.00000173,0.00000322,0.00000283
 ,-0.00000716,0.00000452,0.00000014,-0.00000780,0.00000660,-0.00000207,
 -0.00000981,0.00000633,-0.00000441,-0.00000893,0.00000726,-0.00000097,
 -0.00001146,0.00000715,-0.00000240,-0.00001067,-0.00000261,-0.00000445
 ,0.00000684,-0.00000193,-0.00000784,0.00000649,-0.00000344,-0.00000867
 ,0.00000908,-0.00000059,-0.00000883,0.00000452,-0.00000045,-0.00001119
 ,0.00000499,0.00000033,-0.00000684,0.00000208,0.00000217,-0.00000828,-
 0.00000033,0.00000227,-0.00000666,-0.00000109,0.00000234,-0.00001056,0
 .00000048,0.00000334,-0.00000851,-0.00000210,-0.00000139,0.00000873,-0
 .00000198,-0.00000084,0.00000953,-0.00000210,-0.00000428,0.00000852,0.
 00000198,-0.00000008,0.00000970,-0.00000382,-0.00000280,0.00000873,0.0
 0000131,-0.00000157,0.00000957,-0.00000154,0.00000104,0.00000991,-0.00
 000575,-0.00000420,0.00000852,0.00000348,0.00000127,0.00001013,-0.0000
 0610,-0.00000394,0.00000867,0.00000295,-0.00000116,0.00000952,-0.00000
 188\\\@
 The archive entry for this job was punched.


 EVERY WORD THAT YOU WRITE IS A BLOW THAT SMITES THE DEVIL.
     -- ST. BERNARD OF CLAIRVAUX
 Job cpu time:       1 days  3 hours 33 minutes 35.6 seconds.
 Elapsed time:       0 days  1 hours 23 minutes 13.9 seconds.
 File lengths (MBytes):  RWF=   4131 Int=      0 D2E=      0 Chk=     88 Scr=      1
 Normal termination of Gaussian 16 at Thu Mar  7 23:35:31 2024.
